% Model:              u1.mph
% Version:            COMSOL 5.4.0.225
% Date:               Feb 1 2019, 12:57
% Dimension:          2
% Nodes:              7634
% Expressions:        1
% Description:        Dependent variable u
% Length unit:        m
% x                       y                        u (1) @ t=1000
-7.5                      -12.5                    3.1171042601570225
-7.250000000000037        -12.5                    3.1052443861739376
-7.3374671407145495       -12.329651574550818      3.106488964939514
-7.5                      -12.25                   3.105045167740872
-7.000000000000037        -12.5                    3.0698955315683225
-7.121656495313863        -12.277385675228883      3.080506563218574
-7.5                      -12                      3.0691136993656287
-7.315679208258853        -12.120872197525207      3.0830299400728
-6.7500000000000355       -12.5                    3.0117563786009165
-6.861097408456697        -12.29846010222184       3.0326682191875416
-7.499999999999999        -11.75                   3.0100505441874055
-7.305678822690329        -11.878019377582177      3.036098317626989
-6.5000000000000355       -12.5                    2.9320218047028894
-6.618706031167112        -12.297578238322714      2.964894445372899
-7.499999999999999        -11.5                    2.929118912078359
-7.300979653050327        -11.627549771137687      2.9658324151741193
-6.250000000000034        -12.5                    2.832415209298001
-6.373008022997354        -12.296731258736017      2.876348663113451
-7.5                      -11.25                   2.828129757539837
-7.299892167058572        -11.376802265717481      2.8746470957858854
-6.000000000000034        -12.5                    2.7152006229739705
-6.123449325377528        -12.296850069424762      2.7679753819127573
-7.500000000000001        -11                      2.709448683020227
-7.299236716007024        -11.126397090926773      2.7646425135739077
-5.750000000000032        -12.5                    2.583160064496488
-5.873812060372788        -12.297197084503546      2.6434299115752
-7.5                      -10.75                   2.57596414443369
-7.298782900589671        -10.876065443261353      2.6383729633885444
-5.500000000000032        -12.5                    2.439520018835996
-5.624432920877358        -12.297449799498926      2.505870945698963
-7.5                      -10.5                    2.4310038822522726
-7.298297253205412        -10.625679442540251      2.4988903214414964
-5.250000000000032        -12.5                    2.2878229736074336
-5.37477889619392         -12.29753910796238       2.358380250520984
-7.5                      -10.25                   2.278196927400783
-7.297926680647983        -10.375393351215616      2.349797527907737
-5.00000000000003         -12.5                    2.131753241975442
-5.125000000000029        -12.297566561865388      2.2046448787880766
-7.5                      -10                      2.121291516847757
-7.297710866788179        -10.12518732506054       2.1948082226378904
-4.75000000000003         -12.5                    1.9749373034257316
-4.875000000000029        -12.297566561865388      2.048258953946368
-7.5                      -9.75                    1.963950404167151
-7.297604477248478        -9.875068211773158       2.0376546340651482
-4.500000000000028        -12.5                    1.8207457175937447
-4.625000000000028        -12.297566561865388      1.892866055357907
-4.250000000000028        -12.5                    1.6721236389724166
-4.375000000000028        -12.297566561865388      1.7416283738241145
-7.499999999999999        -9.5                     1.8095513585619376
-7.297571022746962        -9.625016759688622       1.881857414912586
-4.000000000000027        -12.5                    1.531470602566839
-4.1250000000000275       -12.297566561865388      1.5972167591838076
-3.7500000000000266       -12.5                    1.4005799432567463
-3.875000000000027        -12.297566561865388      1.4617206731767955
-7.5                      -9.250000000000002       1.661019774015238
-7.29756685930099         -9.375001316853307       1.7305506407698543
-3.500000000000026        -12.5                    1.2806370271085934
-3.6250000000000266       -12.297566561865388      1.3366183184551141
-7.500000000000001        -9.000000000000002       1.5207132871636488
-7.297566561865388        -9.125                   1.5863585674310234
-3.250000000000025        -12.5                    1.1722664936596514
-3.375000000000026        -12.297566561865388      1.2228011678524455
-3.0000000000000244       -12.5                    1.0756135733275585
-3.125000000000025        -12.297566561865388      1.1206400770999296
-7.500000000000001        -8.750000000000002       1.3903674433616937
-7.297566561865388        -8.875                   1.4513123460943376
-2.750000000000023        -12.5                    0.9904434106761629
-2.8750000000000244       -12.297566561865388      1.0300771265254909
-2.500000000000023        -12.5                    0.916244272169611
-2.6250000000000235       -12.297566561865388      0.9507279105787664
-7.5                      -8.500000000000002       1.271100221360149
-7.297566561865388        -8.625                   1.3268265650844298
-2.2500000000000218       -12.5                    0.8523241725963234
-2.3750000000000226       -12.297566561865388      0.8819819548285475
-2.0000000000000213       -12.5                    0.7978945277089173
-2.1250000000000218       -12.297566561865388      0.8230929135703661
-7.5                      -8.25                    1.1634645036001774
-7.297566561865388        -8.375                   1.2137230673917108
-1.7500000000000209       -12.5                    0.7521380403670793
-1.875000000000021        -12.297566561865388      0.7732540881178368
-1.5000000000000195       -12.5                    0.7142607165896604
-1.6250000000000204       -12.297566561865388      0.7316579535239925
-7.5                      -8                       1.067532865072099
-7.297566561865388        -8.125                   1.1123006630629175
-1.250000000000019        -12.5                    0.6835296102175751
-1.3750000000000195       -12.297566561865388      0.6975405527179773
-1.0000000000000178       -12.5                    0.6592987497231566
-1.1250000000000184       -12.297566561865388      0.670212861110258
-7.5                      -7.75                    0.9829983645981549
-7.297566561865388        -7.875                   1.0224294429396557
-0.7500000000000178       -12.5                    0.6410259334308005
-0.8750000000000177       -12.297566561865388      0.6490817357703721
-0.5000000000000164       -12.5                    0.6282829149187098
-0.625000000000017        -12.297566561865388      0.6336630721601494
-7.5                      -7.5                     0.9092773160805153
-7.297566561865388        -7.625                   0.9436535633121412
-0.250000000000016        -12.5                    0.6207611194351967
-0.37500000000001626      -12.297566561865388      0.623589502288712
-1.509903313490213E-14    -12.5                    0.6182745588928951
-0.12500000000001554      -12.297566561865388      0.618614532436395
-7.500000000000001        -7.25                    0.8456038697454801
-7.297566561865389        -7.375                   0.8752903940776928
0.2499999999999858        -12.5                    0.6207611195687937
0.12499999999998535       -12.297566561865388      0.6186145324628275
0.4999999999999867        -12.5                    0.6282829151903792
0.37499999999998623       -12.297566561865388      0.6235895023686284
-7.500000000000001        -7                       0.79111036664107
-7.297566561865389        -7.125                   0.8165180206078367
0.7499999999999876        -12.5                    0.6410259338496639
0.624999999999987         -12.297566561865388      0.6336630722953523
-7.500000000000001        -6.75                    0.7448909935497108
-7.297566561865388        -6.875                   0.7664469830479486
0.999999999999988         -12.5                    0.659298750302701
0.8749999999999879        -12.297566561865388      0.6490817359636439
1.2499999999999893        -12.5                    0.6835296109753329
1.1249999999999887        -12.297566561865388      0.6702128613649562
-7.5                      -6.5                     0.7060488706540767
-7.297566561865388        -6.625                   0.7241752199577313
1.4999999999999893        -12.5                    0.7142607175466127
1.3749999999999893        -12.297566561865388      0.6975405530373694
1.7499999999999907        -12.5                    0.7521380415467197
1.6249999999999896        -12.297566561865388      0.7316579539102425
-7.5                      -6.249999999999999       0.673728313099501
-7.297566561865388        -6.375                   0.688827262756273
1.9999999999999911        -12.5                    0.7978945291356773
1.8749999999999905        -12.297566561865388      0.7732540885705622
2.2499999999999925        -12.5                    0.8523241742947864
2.1249999999999916        -12.297566561865388      0.8230929140847519
-7.5                      -5.999999999999999       0.6471347840780052
-7.297566561865388        -6.125                   0.6595798841366324
2.499999999999993         -12.5                    0.9162442741615867
2.3749999999999925        -12.297566561865388      0.8819819553929268
2.7499999999999933        -12.5                    0.9904434129778102
2.624999999999993         -12.297566561865388      0.9507279111715556
-7.5                      -5.749999999999999       0.625545239157903
-7.297566561865388        -5.875                   0.6356768497291303
2.9999999999999947        -12.5                    1.0756135759429046
2.8749999999999933        -12.297566561865388      1.0300771271111147
3.2499999999999947        -12.5                    1.1722664965659433
3.1249999999999933        -12.297566561865388      1.1206400776226213
-7.5                      -5.499999999999999       0.608311378965259
-7.297566561865388        -5.625                   0.6164353967872557
3.499999999999996         -12.5                    1.280637030224752
3.3749999999999947        -12.297566561865388      1.2228011682257856
3.7499999999999964        -12.5                    1.4005799463834057
3.624999999999995         -12.297566561865388      1.336618318543624
-7.5                      -5.249999999999998       0.5948579622109903
-7.297566561865388        -5.375                   0.6012467734015948
3.9999999999999973        -12.5                    1.5314706052978009
3.8749999999999964        -12.297566561865388      1.46172067276128
4.249999999999998         -12.5                    1.672123640225372
4.124999999999997         -12.297566561865388      1.5972167578987853
-7.500000000000001        -4.999999999999998       0.5846779088497004
-7.297566561865388        -5.125                   0.5895727691978966
4.499999999999997         -12.5                    1.8207457190197436
4.374999999999998         -12.297566561865388      1.741628371160931
4.749999999999998         -12.5                    1.9749373139241786
4.624999999999999         -12.297566561865388      1.8928660503963435
-7.5                      -4.749999999999998       0.5773255190691562
-7.297566561865388        -4.875                   0.5809397518676002
4.999999999999998         -12.5                    2.1317532736654172
4.8750002374211485        -12.297566737232975      2.0482591002804362
5.249999999999998         -12.5                    2.287823027874109
5.125038771618699         -12.29758730529595       2.204670098991518
-7.5                      -4.499999999999998       0.5724087854433261
-7.297566561865388        -4.624999999999999       0.574931347622802
5.499999999999998         -12.5                    2.439520098708945
5.3751407540392           -12.29769047266774       2.3586082136916597
5.75                      -12.5                    2.5831602071629054
5.62530394006286          -12.297952513873353      2.5064020252266173
-7.5                      -4.249999999999998       0.5695814956126136
-7.297566561865388        -4.374999999999999       0.5711805913403292
5.999999999999999         -12.499999999999998      2.715200839692304
5.87549348520752          -12.298384645793815      2.644395647188556
-7.5                      -3.9999999999999964      0.5685356092992997
-7.297566561865388        -4.124999999999999       0.5693621280397921
6.25                      -12.5                    2.8324154901364245
6.125869195939302         -12.298765062451254      2.7692421992417526
6.5                       -12.5                    2.9320220352739095
6.375780386092047         -12.29973874917467       2.877669760593418
-7.5                      -3.7499999999999964      0.5689942369518285
-7.297566561865388        -3.8749999999999987      0.569184865093508
6.75                      -12.5                    3.011756551831804
6.626182432210402         -12.300205308922132      2.967477227121515
7                         -12.5                    3.0698956873200074
6.87503177961564          -12.305878096790394      3.0364933903004374
-7.5                      -3.4999999999999973      0.5707054357200856
-7.297566561865388        -3.624999999999998       0.5703853430796234
7.25                      -12.5                    3.1052444597266735
7.122419833832843         -12.314273476999253      3.083496615644014
7.5                       -12.5                    3.117104289250592
7.330549097287276         -12.337066163358275      3.106530016216206
-7.500000000000001        -3.2499999999999964      0.5734369596280489
-7.297566561865388        -3.374999999999998       0.5727220001339353
7.5                       -12.250000000000018      3.105045650326502
-7.500000000000001        -2.9999999999999964      0.5769720439253868
-7.297566561865388        -3.1249999999999964      0.575970438456817
7.5                       -12.000000000000018      3.0691140498879386
7.280325652603539         -12.121057339792108      3.0803705129138024
-7.5                      -2.7499999999999956      0.5811062598643315
-7.297566561865388        -2.8749999999999964      0.5799197524472168
7.5                       -11.750000000000014      3.01005138942385
7.296816727387784         -11.860491593320134      3.0312717781498897
-7.5                      -2.4999999999999956      0.5856454389820133
-7.297566561865388        -2.6249999999999964      0.5843699380604864
7.5                       -11.500000000000014      2.929119352517595
7.2963067823546695        -11.619847917335983      2.9629973353539807
-7.5                      -2.2499999999999956      0.5904046310105354
-7.297566561865388        -2.3749999999999964      0.5891303669545578
7.5                       -11.250000000000014      2.828130076969439
7.296193798816304         -11.373053116495509      2.8728713520019196
-7.5                      -1.9999999999999956      0.5952080245242236
-7.297566561865388        -2.1249999999999964      0.594019273516266
7.5                       -11.000000000000014      2.709448959824782
7.296682635510101         -11.123081789633817      2.762895637110478
-7.5                      -1.7499999999999956      0.5998897239905742
-7.297566561865388        -1.8749999999999962      0.5988641666893857
7.5                       -10.750000000000014      2.5759642867341266
7.297215456100371         -10.87373242639923       2.6370268635026353
-7.5                      -1.4999999999999956      0.6042952422325337
-7.297566561865388        -1.6249999999999958      0.6035030421813068
7.5                       -10.500000000000014      2.4310038960920513
7.297469216310009         -10.624433076684582      2.4981179108810454
-7.5                      -1.2499999999999956      0.6082835358425644
-7.297566561865388        -1.3749999999999953      0.6077862360636361
7.5                       -10.250000000000014      2.2781968651666573
7.29754482162578          -10.374831736824435      2.349432973106708
-7.500000000000001        -0.9999999999999947      0.6117293859260429
-7.297566561865388        -1.124999999999995       0.6115787309454347
7.5                       -10.000000000000014      2.1212914247567163
7.297566561865388         -10.125000000000014      2.1946832262492184
-7.5                      -0.7499999999999938      0.6145259109543637
-7.297566561865388        -0.8749999999999943      0.6147627041738843
7.5                       -9.750000000000014       1.9639503080656462
7.297566561865388         -9.875000000000014       2.0376098957542754
-7.5                      -0.4999999999999938      0.616586995313631
-7.297566561865388        -0.6249999999999941      0.617240097149787
7.5                       -9.500000000000014       1.8095512656528543
7.297566561865388         -9.625000000000014       1.8818468069499048
-7.5                      -0.24999999999999378     0.6178494282318473
-7.297566561865388        -0.37499999999999406     0.6189349883584506
7.5                       -9.250000000000014       1.6610196882930932
7.297566561865388         -9.375000000000014       1.730549761531279
-7.5                      5.329070518200751E-15    0.6182745736957166
-7.297566561865388        -0.12499999999999427     0.619795571425799
7.5                       -9.000000000000014       1.5207132097881992
7.297566561865388         -9.125000000000014       1.5863584864214817
-7.5                      0.25000000000000533      0.6178494317021561
-7.297566561865388        0.12500000000000552      0.6197955731948058
7.5                       -8.750000000000014       1.390367374399094
7.297566561865388         -8.875000000000014       1.4513122733300172
-7.5                      0.5000000000000053       0.6165870021477352
-7.297566561865388        0.3750000000000056       0.6189349936112946
-7.5                      0.7500000000000071       0.6145259209421283
-7.297566561865388        0.6250000000000062       0.6172401057254406
7.5                       -8.500000000000014       1.271100160617424
7.297566561865388         -8.625000000000014       1.3268265006323332
-7.5                      1.000000000000007        0.6117293987592465
-7.297566561865388        0.8750000000000068       0.6147627158088468
-7.5                      1.250000000000007        0.6082835511226051
-7.297566561865388        1.1250000000000069       0.6115787452806117
7.5                       -8.250000000000014       1.1634644506570264
7.297566561865388         -8.375000000000014       1.213723010927066
-7.5                      1.500000000000007        0.6042952594796395
-7.297566561865388        1.375000000000007        0.6077862526531317
7.5                       -8.000000000000014       1.0675328193557605
7.297566561865388         -8.125000000000014       1.1123006140773777
-7.5                      1.750000000000007        0.5998897426537193
-7.297566561865388        1.625000000000007        0.6035030605023741
-7.5                      2.000000000000007        0.595208043990873
-7.297566561865388        1.875000000000007        0.5988641861526675
7.5                       -7.750000000000013       0.9829983254546312
7.297566561865388         -7.875000000000014       1.0224294008143586
-7.5                      2.250000000000007        0.5904046506153187
-7.297566561865388        2.125000000000007        0.5940192934754144
-7.5                      2.500000000000007        0.5856454580134702
-7.297566561865388        2.375000000000007        0.5891303867143299
7.5                       -7.5000000000000115      0.9092772828254555
7.297566561865388         -7.625000000000014       0.9436535273790944
-7.5                      2.750000000000007        0.5811062775689504
-7.297566561865388        2.625000000000007        0.5843699568824824
-7.5                      3.000000000000009        0.5769720595082662
-7.297566561865388        2.875000000000007        0.5799197695525211
7.5                       -7.2500000000000115      0.8456038416984811
7.297566561865388         -7.375000000000014       0.8752903636576148
-7.5                      3.250000000000009        0.5734369722496492
-7.297566561865388        3.125000000000007        0.5759704530249382
-7.5                      3.500000000000008        0.5707054444886713
-7.297566561865388        3.3750000000000075       0.5727220112975778
7.5                       -7.000000000000011       0.791110343149897
7.297566561865388         -7.125000000000014       0.8165179950376071
-7.5                      3.750000000000008        0.5689942409113361
-7.297566561865388        3.6250000000000075       0.5703853499149627
-7.5                      4.00000000000001         0.5685356074125056
-7.297566561865388        3.8750000000000075       0.5691848666057825
7.5                       -6.750000000000011       0.7448909740068473
7.297566561865388         -6.875000000000014       0.7664469617008765
-7.5                      4.25000000000001         0.5695814867396098
-7.297566561865388        4.125000000000009        0.5693621231441622
-7.5                      4.500000000000011        0.5724087683154709
-7.297566561865388        4.37500000000001         0.5711805788380949
7.5                       -6.500000000000011       0.7060488545065958
7.297566561865388         -6.625000000000014       0.7241752022568057
-7.5                      4.750000000000011        0.5773254922588631
-7.297566561865388        4.6250000000000115       0.5749313261732532
-7.5                      5.000000000000011        0.5846778707367105
-7.297566561865388        4.875000000000012        0.5809397199559934
7.5                       -6.250000000000011       0.673728299853449
7.297566561865388         -6.375000000000013       0.6888272481812447
-7.5                      5.250000000000011        0.5948579109461622
-7.297566561865389        5.125000000000013        0.5895727251003925
7.5                       -6.000000000000011       0.6471347732986494
7.297566561865388         -6.125000000000013       0.6595798722262433
-7.5                      5.500000000000011        0.6083113124334919
-7.297566561865388        5.375000000000017        0.6012467151484567
-7.5                      5.750000000000011        0.6255451549426092
-7.297566561865387        5.625000000000031        0.6164353221262875
7.5                       -5.750000000000011       0.6255452304671225
7.297566561865388         -5.875000000000013       0.6356768400798504
-7.5                      6.000000000000011        0.6471346794306546
-7.297566561865384        5.87500000000009         0.6356767560922713
-7.5                      6.250000000000011        0.6737281849192204
-7.297566561865373        6.125000000000333        0.659579768613895
-7.5                      6.500000000000011        0.7060487154841099
-7.297566561865314        6.375000000001305        0.6888271220828529
7.5                       -5.500000000000011       0.608311372037168
7.297566561865388         -5.625000000000013       0.6164353890497302
-7.5                      6.750000000000011        0.7448908075997179
-7.297566561865044        6.625000000005127        0.7241750505222444
7.5                       -5.250000000000011       0.5948579567666226
7.297566561865388         -5.375000000000013       0.601246767275764
-7.5                      7.000000000000011        0.7911101458465822
-7.29756656186382         6.875000000019817        0.7664467809326238
-7.5                      7.2500000000000115       0.8456036098778673
-7.29756656185848         7.125000000074949        0.816517781676361
7.5                       -5.000000000000011       0.5846779046513592
7.297566561865388         -5.125000000000012       0.589572764427504
-7.5                      7.5000000000000115       0.9092770129216788
-7.297566561836024        7.375000000276358        0.8752901141383073
-7.5                      7.750000000000013        0.9829980141924978
-7.297566561745047        7.625000000990684        0.9436532384219111
7.5                       -4.750000000000011       0.5773255159148339
7.297566561865388         -4.8750000000000115      0.5809397482345843
-7.5                      8.000000000000014        1.0675324640628625
-7.2975665613904175       7.875000003442889        1.0224290700488707
-7.5                      8.250000000000014        1.1634640496472575
-7.2975665600628234       8.125000011565119        1.1123002416445542
7.5                       -4.500000000000011       0.5724087831614458
7.297566561865388         -4.625000000000011       0.574931344941895
-7.5                      8.500000000000014        1.271099713621221
-7.297566555300503        8.375000037439014        1.2137226040874463
-7.5                      8.750000000000014        1.3903668829961908
-7.297566538969233        8.625000116486598        1.3268260873465587
7.5                       -4.25000000000001        0.5695814940572321
7.297566561865388         -4.37500000000001        0.5711805894540527
-7.5                      9.000000000000014        1.5207126777792448
-7.297566485545779        8.875000347700698        1.451311941055401
-7.5                      9.250000000000014        1.6610191219134112
-7.2975663191367355       9.12500099571758         1.5863584871090506
7.5                       -4.00000000000001        0.5685356083458415
7.297566561865388         -4.125000000000009       0.5693621268139503
-7.5                      9.500000000000014        1.8095506735080829
-7.297565826453352        9.375002745899595        1.7305507821210109
7.5                       -3.750000000000008       0.5689942364933664
7.297566561865388         -3.8750000000000075      0.5691848644132166
-7.5                      9.750000000000014        1.96394970061558
-7.297564445934005        9.625007366912326        1.8818506560398645
-7.5                      10.000000000000014       2.1212908151450396
-7.2975608455778165       9.87501962835813         2.0376213415266577
-7.5                      10.250000000000014       2.2781962485751706
-7.2975527564169225       10.125053765536325       2.1947155502505207
7.5                       -3.500000000000008       0.5707054356641613
7.297566561865388         -3.6250000000000075      0.570385342845883
-7.5                      10.500000000000014       2.431003256823332
-7.297544700771562        10.375158554811264       2.3496317435905456
-7.5                      10.750000000000014       2.575963584290026
-7.297237570906325        10.625280909610685       2.498593782822059
7.5                       -3.250000000000009       0.5734369598940031
7.297566561865388         -3.3750000000000075      0.5727220002607237
-7.5                      11.000000000000014       2.7094481121462497
-7.296637141477152        10.875912751841952       2.6381506800362478
7.5                       -3.000000000000009       0.5769720444421712
7.297566561865388         -3.125000000000007       0.5759704388686772
-7.5                      11.250000000000014       2.8281289232493965
-7.295157557425814        11.12792707441762        2.7650854564403793
-7.5                      11.500000000000014       2.9291183342611844
-7.294713616206047        11.383188153295961       2.876842840322883
7.5                       -2.750000000000007       0.5811062605687601
7.297566561865388         -2.875000000000007       0.5799197530773011
-7.5                      11.750000000000014       3.0100507768961067
-7.294986985216417        11.62828959551707        2.96563050578985
-7.5                      12.000000000000018       3.06911371920607
-7.2984011646841855       11.865385604953703       3.0325662752302445
7.5                       -2.500000000000007       0.5856454398174182
7.297566561865388         -2.625000000000007       0.5843699388490236
-7.5                      12.250000000000018       3.1050455350719073
-7.275397475498109        12.122115101058466       3.080111094797892
-7.5                      12.5                     3.1171042601570216
-7.328022341935925        12.339061833572298       3.106490984533521
7.5                       -2.250000000000007       0.5904046319257865
7.297566561865388         -2.375000000000007       0.5891303678477041
-7.25                     12.5                     3.1052443861739367
7.5                       -2.000000000000007       0.5952080254730688
7.297566561865388         -2.125000000000007       0.5940192744652993
-7                        12.5                     3.069895531568322
-7.114714234181513        12.323194066803016       3.0830086673771646
7.5                       -1.750000000000007       0.5998897249312611
7.297566561865388         -1.875000000000007       0.5988641676502006
-6.75                     12.5                     3.0117563786009165
-6.877989465428228        12.305337452555117       3.037139128067443
7.5                       -1.500000000000007       0.6042952431276628
7.297566561865388         -1.625000000000007       0.6035030431141686
-6.5                      12.5                     2.9320218047028894
-6.6303493269929845       12.299431906490378       2.9687425316531253
7.5                       -1.250000000000007       0.6082835366591247
7.297566561865388         -1.375000000000007       0.6077862369331429
-6.25                     12.5                     2.8324152092980004
-6.379846550116931        12.298398915301492       2.8791872091985713
7.5                       -1.000000000000007       0.6117293866355823