% Model:              U1_backwards_compatible.mph
% Version:            COMSOL 5.1.0.234
% Date:               Aug 16 2022, 10:38
% Dimension:          2
% Nodes:              7634
% Expressions:        1
% Description:        Dependent variable u
% Length unit:        m
% x                       y                        u (1) @ t=1000
-7.5                      -12.5                    3.1171042601572627
-7.250000000000133        -12.5                    3.105244386174197
-7.337467140714745        -12.329651574551194      3.106488964319615
-7.499999999999999        -12.249999999999996      3.1050451668313754
-7.00000000000013         -12.5                    3.069895531568681
-7.121656495314211        -12.277385675229983      3.0805065624144286
-7.5                      -11.999999999999996      3.0691136975649402
-7.315679208259377        -12.12087219752599       3.083029938702106
-6.750000000000128        -12.5                    3.0117563786014165
-6.861097408457507        -12.298460102229008      3.0326682184702105
-7.5                      -11.749999999999993      3.0100505415332983
-7.305678822689975        -11.878019377584284      3.036098315408999
-6.500000000000124        -12.5                    2.932021804703584
-6.618706031168089        -12.297578238319844      2.9648944446666348
-7.500000000000001        -11.499999999999993      2.9291189086288676
-7.300979653050844        -11.62754977113695       2.9658324121285484
-6.250000000000123        -12.5                    2.8324152092989237
-6.3730080229996915       -12.296731258729514      2.8763486624249204
-7.5                      -11.24999999999999       2.828129753373993
-7.299892167059557        -11.376802265715625      2.8746470919806133
-6.000000000000121        -12.5                    2.715200622975131
-6.123449325378588        -12.296850069422781      2.767975381250633
-7.5                      -10.99999999999999       2.709448678237694
-7.299236716008845        -11.126397090925856      2.7646425091005136
-5.750000000000117        -12.5                    2.5831600644978834
-5.873812060373251        -12.297197084502967      2.6434299109455277
-7.5                      -10.749999999999986      2.5759641391526347
-7.298782900599218        -10.876065443257303      2.638372958355054
-5.5000000000001155       -12.5                    2.4395200188362023
-5.624432920877559        -12.297449799498764      2.505870945106363
-7.499999999999999        -10.499999999999986      2.431003876605157
-7.29829725322039         -10.625679442536171      2.498890315975214
-5.250000000000114        -12.5                    2.2878229736078812
-5.374778896194034        -12.297539107962342      2.358380249969409
-7.5                      -10.249999999999984      2.278196921528207
-7.297926680657121        -10.375393351214836      2.3497975221476106
-5.00000000000011         -12.5                    2.1317532419761385
-5.125000000000111        -12.297566561865388      2.204644878280875
-7.5                      -9.999999999999982       2.12129151089099
-7.297710866790436        -10.125187325060487      2.1948082167242773
-4.750000000000108        -12.5                    1.9749373034266011
-4.8750000000001075       -12.297566561865388      2.0482589534857745
-7.500000000000001        -9.74999999999998        1.9639503982603272
-7.297604477248478        -9.875068211773142       2.0376546281362615
-4.500000000000105        -12.5                    1.820745717594746
-4.625000000000106        -12.297566561865386      1.8928660549448446
-4.250000000000103        -12.5                    1.6721236389734777
-4.375000000000106        -12.297566561865388      1.7416283734581846
-7.5                      -9.499999999999979       1.809551352824969
-7.297571022746962        -9.625016759688604       1.8818574090958775
-4.000000000000101        -12.5                    1.5314706025679155
-4.125000000000103        -12.297566561865388      1.5972167588634216
-3.7500000000000977       -12.5                    1.4005799432586195
-3.8750000000001          -12.297566561865386      1.4617206728994
-7.5                      -9.249999999999975       1.6610197685483865
-7.29756685930099         -9.37500131685328        1.7305506351754574
-3.500000000000096        -12.5                    1.280637027110349
-3.6250000000000973       -12.297566561865388      1.3366183182173756
-7.5                      -8.999999999999975       1.5207132820443174
-7.297566561865387        -9.124999999999973       1.586358562147587
-3.2500000000000937       -12.5                    1.1722664936612737
-3.3750000000000946       -12.297566561865388      1.222801167650523
-3.0000000000000906       -12.5                    1.0756135733290382
-3.125000000000092        -12.297566561865388      1.120640076929796
-7.5                      -8.749999999999972       1.390367438643522
-7.297566561865387        -8.874999999999973       1.451312341187017
-2.750000000000089        -12.5                    0.9904434106774999
-2.87500000000009         -12.297566561865388      1.0300771263831232
-2.5000000000000857       -12.5                    0.9162442721708087
-2.6250000000000875       -12.297566561865388      0.9507279104602991
-7.5                      -8.499999999999968       1.2711002170741954
-7.297566561865387        -8.624999999999972       1.3268265605950893
-2.2500000000000835       -12.5                    0.8523241725973906
-2.375000000000085        -12.297566561865388      0.8819819547303763
-2.0000000000000813       -12.5                    0.7978945277098647
-2.125000000000082        -12.297566561865388      0.823092913489206
-7.5                      -8.249999999999964       1.1634644997576105
-7.297566561865386        -8.374999999999968       1.2137230633409322
-1.7500000000000786       -12.5                    0.7521380403674929
-1.8750000000000797       -12.297566561865388      0.7732540880507388
-1.5000000000000764       -12.5                    0.7142607165900028
-1.6250000000000773       -12.297566561865388      0.7316579534683746
-7.5                      -7.9999999999999645      1.067532861667808
-7.297566561865387        -8.124999999999964       1.1123006594532183
-1.2500000000000742       -12.5                    0.6835296102178502
-1.3750000000000753       -12.297566561865388      0.697540552671597
-1.000000000000071        -12.5                    0.6592987497233871
-1.1250000000000724       -12.297566561865386      0.6702128610711435
-7.5                      -7.749999999999961       0.9829983616146666
-7.297566561865386        -7.874999999999962       1.0224294397593015
-0.7500000000000693       -12.5                    0.6410259334309873
-0.8750000000000702       -12.297566561865388      0.6490817357367858
-0.5000000000000662       -12.5                    0.6282829149188688
-0.6250000000000677       -12.297566561865388      0.6336630721305454
-7.5                      -7.49999999999996        0.9092773134917765
-7.297566561865387        -7.62499999999996        0.9436535605390207
-0.25000000000006395      -12.5                    0.6207611194353365
-0.3750000000000651       -12.297566561865388      0.6235895022616925
-6.128431095930864E-14    -12.5                    0.6182745588933779
-0.12500000000006262      -12.297566561865386      0.6186145324106685
-7.499999999999999        -7.249999999999957       0.8456038675201839
-7.297566561865387        -7.374999999999958       0.8752903916828806
0.2499999999999405        -12.5                    0.6207611195692794
0.1249999999999396        -12.297566561865388      0.6186145324371332
0.49999999999994316       -12.5                    0.6282829151908805
0.3749999999999419        -12.297566561865388      0.6235895023416883
-7.500000000000001        -6.999999999999956       0.79111036474538
-7.297566561865387        -7.124999999999957       0.8165180185586153
0.7499999999999454        -12.5                    0.6410259338501938
0.6249999999999443        -12.297566561865388      0.6336630722658524
-7.5                      -6.749999999999954       0.7448909919493446
-7.297566561865387        -6.8749999999999565      0.766446981310197
0.9999999999999485        -12.5                    0.6592987503032723
0.8749999999999468        -12.297566561865388      0.6490817359301783
1.2499999999999503        -12.5                    0.6835296109759591
1.1249999999999492        -12.297566561865388      0.6702128613259761
-7.5                      -6.49999999999995        0.7060488693157904
-7.297566561865387        -6.624999999999953       0.724175218497691
1.4999999999999534        -12.5                    0.7142607175473064
1.374999999999952         -12.297566561865388      0.6975405529911338
1.7499999999999556        -12.5                    0.7521380415474938
1.6249999999999547        -12.297566561865388      0.7316579538547647
-7.5                      -6.249999999999947       0.6737283119920551
-7.297566561865386        -6.3749999999999485      0.6888272615417562
1.9999999999999578        -12.5                    0.7978945291360887
1.8749999999999563        -12.297566561865388      0.7732540885035588
2.2499999999999605        -12.5                    0.852324174295268
2.1249999999999587        -12.297566561865388      0.8230929140036413
-7.5                      -5.999999999999943       0.6471347831727214
-7.297566561865386        -6.124999999999945       0.6595798831377669
2.4999999999999627        -12.5                    0.91624427416215
2.3749999999999614        -12.297566561865388      0.8819819552948062
2.749999999999965         -12.5                    0.9904434129784437
2.624999999999964         -12.297566561865388      0.9507279110531633
-7.5                      -5.7499999999999405      0.6255452384289032
-7.297566561865386        -5.874999999999942       0.635676848918743
2.999999999999968         -12.5                    1.07561357594362
2.8749999999999667        -12.297566561865388      1.0300771269688624
3.24999999999997          -12.5                    1.1722664965667189
3.1249999999999694        -12.297566561865388      1.1206400774526613
-7.5                      -5.499999999999939       0.6083113783894832
-7.297566561865386        -5.624999999999939       0.6164353961409911
3.499999999999973         -12.5                    1.280637030225585
3.3749999999999716        -12.297566561865388      1.2228011680241282
3.749999999999975         -12.5                    1.4005799463850626
3.624999999999974         -12.297566561865388      1.3366183183063123
-7.5                      -5.249999999999936       0.5948579617680624
-7.297566561865387        -5.374999999999936       0.6012467728978484
3.999999999999977         -12.5                    1.5314706052995328
3.874999999999976         -12.297566561865388      1.4617206724845364
4.249999999999979         -12.5                    1.6721236402271462
4.124999999999978         -12.297566561865386      1.5972167575792586
-7.5                      -4.9999999999999325      0.584677908521699
-7.297566561865386        -5.124999999999933       0.5895727688176287
4.4999999999999805        -12.5                    1.8207457190215226
4.37499999999998          -12.297566561865388      1.7416283707960238
4.749999999999982         -12.5                    1.9749373139259179
4.6249999999999805        -12.297566561865388      1.8928660499844536
-7.5                      -4.749999999999929       0.5773255188403361
-7.297566561865386        -4.87499999999993        0.5809397515940767
4.999999999999984         -12.5                    2.131753273667072
4.875000237421131         -12.297566737232975      2.0482590998211543
5.249999999999984         -12.5                    2.2878230278756337
5.1250387716186845        -12.29758730529595       2.2046700984857854
-7.5                      -4.499999999999925       0.5724087852998205
-7.297566561865386        -4.624999999999927       0.5749313474413054
5.499999999999988         -12.500000000000002      2.4395200987103016
5.375140754039187         -12.297690472667737      2.3586082131418835
5.749999999999988         -12.5                    2.583160207162519
5.625303940062854         -12.29795251387332       2.5064020246366305
-7.5                      -4.249999999999923       0.5695814955421369
-7.297566561865386        -4.374999999999924       0.571180591237857
5.99999999999999          -12.5                    2.7152008396916485
5.87549348520746          -12.298384645793568      2.6443956465633085
-7.5                      -3.999999999999921       0.5685356092908693
-7.297566561865386        -4.124999999999922       0.5693621280047707
6.249999999999991         -12.499999999999998      2.832415490135446
6.125869195938994         -12.29876506245044       2.7692421985862157
6.499999999999993         -12.5                    2.9320220352726944
6.375780386089769         -12.299738749169684      2.8776697599142724
-7.5                      -3.7499999999999174      0.5689942369955131
-7.297566561865387        -3.8749999999999187      0.5691848651155241
6.749999999999995         -12.499999999999998      3.0117565518303273
6.626182432203677         -12.300205308903218      2.967477226421449
6.9999999999999964        -12.5                    3.0698956873183465
6.875031779587783         -12.305878096783987      3.0364933896022968
-7.5                      -3.4999999999999147      0.5707054358067877
-7.297566561865386        -3.6249999999999165      0.5703853431491915
7.249999999999998         -12.5                    3.10524445972487
7.122419833800932         -12.314273476995993      3.0834966149688587
7.5                       -12.5                    3.1171042892506255
7.3305490972724865        -12.337066163356116      3.106530015623171
-7.5                      -3.249999999999911       0.5734369597493247
-7.297566561865386        -3.374999999999913       0.5727220002422967
7.5                       -12.250000000000274      3.105045649418917
-7.5                      -2.9999999999999076      0.576972044073307
-7.297566561865386        -3.1249999999999094      0.5759704385957812
7.5                       -12.00000000000027       3.0691140480915173
7.280325652561501         -12.121057339784308      3.080370511543095
-7.5                      -2.749999999999906       0.581106260031381
-7.297566561865387        -2.8749999999999063      0.579919752609043
7.5                       -11.75000000000027       3.010051386776391
7.296816727380562         -11.86049159324837       3.031271775859842
-7.5                      -2.4999999999999023      0.5856454391610337
-7.297566561865387        -2.6249999999999036      0.5843699382378039
7.5                       -11.500000000000266      2.929119349076997
7.296306782353468         -11.619847917324217      2.962997332288299
-7.5                      -2.2499999999998987      0.590404631194703
-7.297566561865386        -2.3749999999999005      0.5891303671403286
7.5                       -11.250000000000263      2.82813007281455
7.296193798816024         -11.373053116493208      2.872871348195836
-7.5                      -1.999999999999897       0.5952080247070624
-7.297566561865387        -2.124999999999898       0.5940192737037827
7.5                       -11.00000000000026       2.7094489550550063
7.296682635509787         -11.123081789632861      2.762895632640806
-7.5                      -1.7499999999998934      0.5998897241660014
-7.297566561865386        -1.8749999999998952      0.5988641668723025
7.5                       -10.750000000000256      2.575964281467309
7.297215456100137         -10.87373242639906       2.6370268584795267
-7.5                      -1.4999999999998899      0.6042952423949267
-7.297566561865386        -1.6249999999998916      0.6035030423537001
7.5                       -10.500000000000252      2.431003890460284
7.297469216309853         -10.624433076684706      2.4981179054292313
-7.5                      -1.249999999999888       0.6082835359868461
-7.297566561865386        -1.374999999999889       0.6077862362200833
7.5                       -10.250000000000252      2.2781968593101456
7.297544821625707         -10.374831736824646      2.3494329673617784
-7.5                      -0.9999999999998845      0.6117293860477765
-7.297566561865387        -1.124999999999886       0.6115787310811082
7.5                       -10.000000000000249      2.121291418816326
7.297566561865386         -10.125000000000252      2.1946832203516973
-7.5                      -0.749999999999881       0.6145259110498491
-7.297566561865386        -0.8749999999998832      0.614762704284651
7.5                       -9.750000000000245       1.9639503021751237
7.297566561865387         -9.875000000000247       2.037609889841743
-7.5                      -0.4999999999998792      0.6165869953799921
-7.297566561865387        -0.6249999999998802      0.6172400972323041
7.5                       -9.500000000000242       1.8095512599317647
7.297566561865387         -9.625000000000243       1.8818468011492857
-7.5                      -0.24999999999987566     0.6178494282671079
-7.297566561865387        -0.3749999999998772      0.6189349884102503
7.5                       -9.250000000000238       1.661019682841407
7.297566561865387         -9.37500000000024        1.7305497559523884
-7.5                      1.2789769243681803E-13   0.6182745736988535
-7.297566561865387        -0.12499999999987388     0.619795571445355
7.5                       -9.000000000000234       1.5207132046830878
7.297566561865387         -9.125000000000238       1.5863584811527132
-7.5                      0.25000000000013145      0.6178494316731286
-7.297566561865387        0.1250000000001294       0.6197955731815767
7.5                       -8.750000000000231       1.3903673696940382
7.297566561865387         -8.875000000000234       1.451312268436333
-7.5                      0.5000000000001332       0.6165870020874865
-7.297566561865387        0.37500000000013234      0.6189349935657392
-7.5                      0.7500000000001368       0.6145259208525589
-7.297566561865387        0.6250000000001352       0.6172401056490058
7.5                       -8.500000000000231       1.2711001563433841
7.297566561865386         -8.625000000000231       1.3268264961554708
-7.5                      1.0000000000001403       0.6117293986431641
-7.297566561865387        0.8750000000001384       0.6147627157039272
-7.5                      1.250000000000142        0.608283550983652
-7.297566561865386        1.1250000000001412       0.6115787451504855
7.5                       -8.250000000000227       1.1634644468251287
7.297566561865387         -8.375000000000227       1.21372300688754
-7.5                      1.5000000000001457       0.6042952593222047
-7.297566561865386        1.3750000000001439       0.6077862525018781
7.5                       -8.000000000000224       1.0675328159608997
7.297566561865386         -8.125000000000226       1.112300610477691
-7.5                      1.7500000000001492       0.5998897424828455
-7.297566561865386        1.6250000000001474       0.603503060334779
-7.5                      2.000000000000151        0.595208043812161
-7.297566561865386        1.87500000000015         0.5988641859741252
7.5                       -7.75000000000022        0.982998322479378
7.297566561865386         -7.875000000000222       1.0224293976427992
-7.5                      2.2500000000001545       0.5904046504348422
-7.297566561865387        2.1250000000001528       0.5940192932918332
-7.5                      2.500000000000158        0.5856454578377077
-7.297566561865387        2.3750000000001563       0.5891303865320525
7.5                       -7.500000000000217       0.9092772802438224
7.297566561865386         -7.6250000000002185      0.943653524613607
-7.5                      2.75000000000016         0.5811062774047394
-7.297566561865386        2.625000000000159        0.5843699567082252
-7.5                      3.0000000000001634       0.5769720593627885
-7.297566561865387        2.8750000000001616       0.5799197693933413
7.5                       -7.250000000000214       0.8456038394792426
7.297566561865386         -7.375000000000216       0.8752903612693493
-7.5                      3.250000000000167        0.5734369721304495
-7.297566561865387        3.1250000000001648       0.5759704528882335
-7.5                      3.5000000000001705       0.570705444403715
-7.297566561865387        3.3750000000001683       0.5727220111911238
7.5                       -7.000000000000212       0.791110341259306
7.297566561865386         -7.125000000000213       0.8165179929939317
-7.5                      3.750000000000173        0.5689942408691061
-7.297566561865387        3.625000000000172        0.5703853498469879
-7.5                      4.000000000000175        0.5685356074221414
-7.297566561865386        3.875000000000174        0.569184866585087
7.5                       -6.75000000000021        0.7448909724107128
7.297566561865387         -6.875000000000212       0.7664469599677607
-7.5                      4.2500000000001785       0.569581486811085
-7.297566561865387        4.125000000000177        0.5693621231802745
-7.5                      4.500000000000181        0.5724087684598101
-7.297566561865387        4.37500000000018         0.5711805789414709
7.5                       -6.500000000000206       0.7060488531717616
7.297566561865387         -6.625000000000209       0.7241752008005805
-7.5                      4.750000000000185        0.5773254924883929
-7.297566561865387        4.625000000000184        0.5749313263555093
-7.5                      5.000000000000188        0.5846778710653374
-7.297566561865387        4.875000000000187        0.5809397202301717
7.5                       -6.2500000000002025      0.6737282987487586
7.297566561865386         -6.375000000000206       0.6888272469698079
-7.5                      5.250000000000192        0.5948579113896688
-7.297566561865387        5.125000000000191        0.5895727254812502
7.5                       -6.000000000000199       0.6471347723954989
7.297566561865386         -6.125000000000202       0.6595798712298001
-7.5                      5.500000000000193        0.608311313009835
-7.297566561865387        5.375000000000196        0.6012467156527638
-7.5                      5.750000000000195        0.6255451556721989
-7.297566561865387        5.625000000000213        0.6164353227731193
7.5                       -5.750000000000195       0.6255452297397015
7.297566561865387         -5.875000000000198       0.6356768392712989
-7.5                      6.000000000000199        0.6471346803365841
-7.297566561865383        5.8750000000002744       0.6356767569032652
-7.5                      6.2500000000002025       0.6737281860273981
-7.297566561865373        6.12500000000052         0.6595797696134382
-7.5                      6.500000000000206        0.7060487168232455
-7.297566561865314        6.375000000001497        0.6888271232981499
7.5                       -5.500000000000193       0.6083113714624762
7.297566561865387         -5.6250000000001945      0.6164353884047781
-7.5                      6.75000000000021         0.744890809201079
-7.297566561865044        6.625000000005321        0.724175051983197
7.5                       -5.250000000000192       0.5948579563243364
7.297566561865387         -5.375000000000192       0.6012467667728626
-7.5                      7.000000000000212        0.7911101477434409
-7.29756656186382         6.875000000020015        0.7664467826714478
-7.5                      7.250000000000214        0.8456036121045297
-7.297566561858479        7.12500000007515         0.816517783726841
7.5                       -5.000000000000188       0.5846779043236024
7.297566561865386         -5.12500000000019        0.5895727640476616
-7.5                      7.500000000000217        0.9092770155120037
-7.297566561836021        7.375000000276561        0.8752901165345878
-7.5                      7.75000000000022         0.9829980171778107
-7.297566561745046        7.62500000099089         0.9436532411967303
7.5                       -4.750000000000185       0.5773255156859022
7.297566561865386         -4.8750000000001865      0.5809397479611099
-7.5                      8.000000000000224        1.0675324674692277
-7.297566561390414        7.875000003443098        1.0224290732311687
-7.5                      8.250000000000227        1.1634640534921505
-7.297566560062822        8.12500001156533         1.112300245256449
7.5                       -4.500000000000181       0.5724087830175077
7.297566561865386         -4.625000000000183       0.5749313447601082
-7.5                      8.500000000000231        1.271099717909745
-7.297566555300502        8.375000037439227        1.2137226081406711
-7.5                      8.750000000000231        1.3903668877171527
-7.297566538969229        8.625000116486815        1.3268260918385815
7.5                       -4.2500000000001785      0.569581493986035
7.297566561865386         -4.37500000000018        0.5711805893509854
-7.5                      9.000000000000234        1.5207126829015551
-7.2975664855457785       8.875000347700917        1.4513119459656112
-7.5                      9.250000000000238        1.6610191273833739
-7.2975663191367355       9.125000995717803        1.586358492395542
7.5                       -4.000000000000175       0.5685356083364327
7.297566561865386         -4.125000000000177       0.5693621267780592
-7.5                      9.500000000000242        1.8095506792482368
-7.297565826453351        9.375002745899819        1.7305507877185662
7.5                       -3.750000000000173       0.5689942365358444
7.297566561865386         -3.875000000000174       0.569184864434119
-7.5                      9.750000000000245        1.963949706525579
-7.297564445934001        9.625007366912554        1.8818506618597597
-7.5                      10.000000000000249       2.1212908211048873
-7.297560845577814        9.875019628358361        2.0376213474586735
-7.5                      10.250000000000252       2.278196254450653
-7.29755275641692         10.12505376553656        2.1947155561672598
7.5                       -3.5000000000001705      0.5707054357494571
7.297566561865387         -3.625000000000172       0.570385342914122
-7.5                      10.500000000000252       2.431003262473097
-7.29754470077156         10.375158554811502       2.349631749353677
-7.5                      10.750000000000256       2.5759635895734134
-7.297237570905973        10.625280909610913       2.4985937882898166
7.5                       -3.250000000000167       0.5734369600137034
7.297566561865387         -3.3750000000001683      0.5727220003675703
-7.5                      11.00000000000026        2.7094481169307585
-7.2966371414771585       10.875912751842193       2.6381506850704035
7.5                       -3.0000000000001634      0.5769720445883775
7.297566561865387         -3.1250000000001648      0.5759704390059711
-7.5                      11.250000000000263       2.8281289274168437
-7.295157557425831        11.127927074417856       2.7650854609110422
-7.5                      11.500000000000266       2.9291183377119183
-7.294713616206049        11.383188153296214       2.8768428441101324
7.5                       -2.75000000000016        0.5811062607339904
7.297566561865387         -2.8750000000001616      0.5799197532373336
-7.5                      11.75000000000027        3.010050779551127
-7.294986985216372        11.6282895955173         2.9656305088335446
-7.5                      12.00000000000027        3.069113721007421
-7.298401164683329        11.865385604953795       3.0325662774921263
7.5                       -2.500000000000158       0.5856454399945492
7.297566561865387         -2.625000000000159       0.5843699390244583
-7.5                      12.250000000000274       3.1050455359818883
-7.275397475493655        12.122115101058567       3.0801110961633285
-7.5                      12.5                     3.1171042601571957
-7.328022341935029        12.339061833572377       3.1064909851196116
7.5                       -2.2500000000001545      0.590404632108031
7.297566561865387         -2.3750000000001563      0.5891303680315393
-7.249999999999998        12.5                     3.105244386174195
7.5                       -2.000000000000151       0.5952080256539902
7.297566561865387         -2.125000000000153       0.5940192746508658
-6.9999999999999964       12.5                     3.0698955315686796
-7.114714234181489        12.323194066803039       3.083008668016934
7.5                       -1.7500000000001492      0.5998897251048163
7.297566561865386         -1.87500000000015        0.5988641678311928
-6.749999999999995        12.499999999999998       3.011756378601415
-6.877989465427923        12.305337452555392       3.0371391287626923
7.5                       -1.5000000000001457      0.6042952432882696
7.297566561865386         -1.6250000000001474      0.6035030432847033
-6.499999999999993        12.5                     2.932021804703584
-6.630349326992596        12.29943190649118        2.968742532354975
7.5                       -1.250000000000142       0.6082835368017466
7.297566561865386         -1.3750000000001439      0.6077862370878386
-6.249999999999991        12.499999999999998       2.8324152092989237
-6.3798465501165795       12.298398915302291       2.8791872098840723
7.5                       -1.0000000000001403      0.6117293867558209
7.297566561865386         -1.1250000000001412      0.6115787318547089
-5.99999999999999         12.5                     2.71520062297513
-6.12874173189573         12.29854644695986        2.770569816726655
7.5                       -0.7500000000001368      0.6145259116274312
7.297566561865387         -0.8750000000001384      0.6147627049378707
-5.749999999999988        12.5                     2.583160064497883