% Model:              u2.mph
% Version:            COMSOL 5.4.0.225
% Date:               Feb 1 2019, 12:59
% Dimension:          2
% Nodes:              7634
% Expressions:        1
% Description:        Dependent variable u
% Length unit:        m
% x                       y                        u (1) @ t=1000
-7.5                      -12.5                    0.8104303937024989
-7.250000000000037        -12.5                    0.8108984795034043
-7.3374671407145495       -12.329651574550818      0.8071301477743958
-7.5                      -12.25                   0.8052218636588226
-7.000000000000037        -12.5                    0.8123052188231794
-7.121656495313863        -12.277385675228883      0.8066485110119219
-7.5                      -12                      0.7993268888303394
-7.315679208258853        -12.120872197525207      0.8023986483447562
-6.7500000000000355       -12.5                    0.8146549709777483
-6.861097408456697        -12.29846010222184       0.8086960559012372
-7.499999999999999        -11.75                   0.7929964710808112
-7.305678822690329        -11.878019377582177      0.7963713405914765
-6.5000000000000355       -12.5                    0.817955529517278
-6.618706031167112        -12.297578238322714      0.8108447716281492
-7.499999999999999        -11.5                    0.786481777821086
-7.300979653050327        -11.627549771137687      0.789832424008094
-6.250000000000034        -12.5                    0.822214571913218
-6.373008022997354        -12.296731258736017      0.8137284158055768
-7.5                      -11.25                   0.780033070901574
-7.299892167058572        -11.376802265717481      0.7832195596557129
-6.000000000000034        -12.5                    0.8274382446525587
-6.123449325377528        -12.296850069424762      0.8174167345867002
-7.500000000000001        -11                      0.7738995194181845
-7.299236716007024        -11.126397090926773      0.776804448119976
-5.750000000000032        -12.5                    0.8336277291460554
-5.873812060372788        -12.297197084503546      0.8218482991229351
-7.5                      -10.75                   0.7683297909440516
-7.298782900589671        -10.876065443261353      0.7708299112986987
-5.500000000000032        -12.5                    0.8407750495650892
-5.624432920877358        -12.297449799498926      0.826990072449326
-7.5                      -10.5                    0.7635734599153078
-7.298297253205412        -10.625679442540251      0.7655420553602567
-5.250000000000032        -12.5                    0.8488580148673877
-5.37477889619392         -12.29753910796238       0.8328185351797363
-7.5                      -10.25                   0.7598832319042977
-7.297926680647983        -10.375393351215616      0.7611953167268061
-5.00000000000003         -12.5                    0.8578341017225465
-5.125000000000029        -12.297566561865388      0.8392861350219364
-7.5                      -10                      0.7575181063568922
-7.297710866788179        -10.12518732506054       0.7580437289234911
-4.75000000000003         -12.5                    0.867633026017673
-4.875000000000029        -12.297566561865388      0.8463224840620677
-7.5                      -9.75                    0.7567476892131714
-7.297604477248478        -9.875068211773158       0.756348866368643
-4.500000000000028        -12.5                    0.8781477559897867
-4.625000000000028        -12.297566561865388      0.8538140895952145
-4.250000000000028        -12.5                    0.8892224204393027
-4.375000000000028        -12.297566561865388      0.8616074257804162
-7.499999999999999        -9.5                     0.7578581862379639
-7.297571022746962        -9.625016759688622       0.7563842941187143
-4.000000000000027        -12.5                    0.9006682043819603
-4.1250000000000275       -12.297566561865388      0.8694938792372405
-3.7500000000000266       -12.5                    0.9143813670414319
-3.875000000000027        -12.297566561865388      0.8774223434327367
-7.5                      -9.250000000000002       0.7611581614217489
-7.29756685930099         -9.375001316853307       0.7584430183783386
-3.500000000000026        -12.5                    0.9357889814549423
-3.6250000000000266       -12.297566561865388      0.8908489752929111
-7.500000000000001        -9.000000000000002       0.7670679014131535
-7.297566561865388        -9.125                   0.7628621098328495
-3.250000000000025        -12.5                    0.9643084407987187
-3.375000000000026        -12.297566561865388      0.9112033453556592
-3.0000000000000244       -12.5                    0.9990506653674981
-3.125000000000025        -12.297566561865388      0.9376896423099738
-7.500000000000001        -8.750000000000002       0.7785700284420205
-7.297566561865388        -8.875                   0.7704853479654222
-2.750000000000023        -12.5                    1.0390305882224908
-2.8750000000000244       -12.297566561865388      0.9694272175026476
-2.500000000000023        -12.5                    1.0831295978185482
-2.6250000000000235       -12.297566561865388      1.0054467537639136
-7.5                      -8.500000000000002       0.8009394151893799
-7.297566561865388        -8.625                   0.7874017114029511
-2.2500000000000218       -12.5                    1.130074669012923
-2.3750000000000226       -12.297566561865388      1.0446633856829
-2.0000000000000213       -12.5                    1.1784368126386777
-2.1250000000000218       -12.297566561865388      1.0858654693488974
-7.5                      -8.25                    0.8345641206891447
-7.297566561865388        -8.375                   0.8152708406514276
-1.7500000000000209       -12.5                    1.2266515505679991
-1.875000000000021        -12.297566561865388      1.1277213099437902
-1.5000000000000195       -12.5                    1.2730617823428374
-1.6250000000000204       -12.297566561865388      1.1688051014211192
-7.5                      -8                       0.8800145686644166
-7.297566561865388        -8.125                   0.8546027599026639
-1.250000000000019        -12.5                    1.3159808578321794
-1.3750000000000195       -12.297566561865388      1.2076414724976081
-1.0000000000000178       -12.5                    1.3537710681573996
-1.1250000000000184       -12.297566561865388      1.242765863905914
-7.5                      -7.75                    0.9379947274601556
-7.297566561865388        -7.875                   0.9060461336663322
-0.7500000000000178       -12.5                    1.3849305851794262
-0.8750000000000177       -12.297566561865388      1.2727958515074977
-0.5000000000000164       -12.5                    1.4081805388881745
-0.625000000000017        -12.297566561865388      1.2965068748160198
-7.5                      -7.5                     1.0092454516355063
-7.297566561865388        -7.625                   0.970334906306498
-0.250000000000016        -12.5                    1.4225436519618146
-0.37500000000001626      -12.297566561865388      1.3129049478872414
-1.509903313490213E-14    -12.5                    1.4274066442579432
-0.12500000000001554      -12.297566561865388      1.3212889783993342
-7.500000000000001        -7.25                    1.0944236518014492
-7.297566561865389        -7.375                   1.0481819521531017
0.2499999999999858        -12.5                    1.4225602798881145
0.12499999999998535       -12.297566561865388      1.3212962814447573
0.4999999999999867        -12.5                    1.4082131729092133
0.37499999999998623       -12.297566561865388      1.3129265854838374
-7.500000000000001        -7                       1.1939547215748998
-7.297566561865389        -7.125                   1.1401460022868617
0.7499999999999876        -12.5                    1.3849780239497749
0.624999999999987         -12.297566561865388      1.2965420511103334
-7.500000000000001        -6.75                    1.307863308432527
-7.297566561865388        -6.875                   1.2464733139493978
0.999999999999988         -12.5                    1.3538316116831963
0.8749999999999879        -12.297566561865388      1.2728433008172617
1.2499999999999893        -12.5                    1.3160524195576098
1.1249999999999887        -12.297566561865388      1.2428239356439006
-7.5                      -6.5                     1.4355963086777959
-7.297566561865388        -6.625                   1.3669234321360675
1.4999999999999893        -12.5                    1.2731420220949705
1.3749999999999893        -12.297566561865388      1.2077082382689215
1.7499999999999907        -12.5                    1.2267380159197372
1.6249999999999896        -12.297566561865388      1.1688784738892422
-7.5                      -6.249999999999999       1.5758615493536754
-7.297566561865388        -6.375                   1.500597622922544
1.9999999999999911        -12.5                    1.1785270755611508
1.8749999999999905        -12.297566561865388      1.1277991621091494
2.2499999999999925        -12.5                    1.1301664456399463
2.1249999999999916        -12.297566561865388      1.0859457433406277
-7.5                      -5.999999999999999       1.726513347415856
-7.297566561865388        -6.125                   1.6457975314567819
2.499999999999993         -12.5                    1.083220841634046
2.3749999999999925        -12.297566561865388      1.0447441820406846
2.7499999999999933        -12.5                    1.0391195505912607
2.624999999999993         -12.297566561865388      1.005526395279152
-7.5                      -5.749999999999999       1.88451815273127
-7.297566561865388        -5.875                   1.799946962128257
2.9999999999999947        -12.5                    0.9991359214114222
2.8749999999999933        -12.297566561865388      0.9695042856914985
3.2499999999999947        -12.5                    0.96438888272457
3.1249999999999933        -12.297566561865388      0.9377629892762253
-7.5                      -5.499999999999999       2.04602615182371
-7.297566561865388        -5.625                   1.9596074356025082
3.499999999999996         -12.5                    0.9358637856135491
3.3749999999999947        -12.297566561865388      0.911272089054847
3.7499999999999964        -12.5                    0.914449946206961
3.624999999999995         -12.297566561865388      0.8909124913570147
-7.5                      -5.249999999999998       2.2065568287436004
-7.297566561865388        -5.375                   2.120605651111273
3.9999999999999973        -12.5                    0.9007301540880183
3.8749999999999964        -12.297566561865388      0.8774802656913824
4.249999999999998         -12.5                    0.8892772722284112
4.124999999999997         -12.297566561865388      0.8695459963080473
-7.500000000000001        -4.999999999999998       2.361281218323242
-7.297566561865388        -5.125                   2.2782689597092496
4.499999999999997         -12.5                    0.8781951141575103
4.374999999999998         -12.297566561865388      0.8616534286332279
4.749999999999998         -12.5                    0.8676726800281869
4.624999999999999         -12.297566561865388      0.853853765188416
-7.5                      -4.749999999999998       2.505358607480668
-7.297566561865388        -4.875                   2.4277389186170986
4.999999999999998         -12.5                    0.8578660583536101
4.8750002374211485        -12.297566737232975      0.8463557049217044
5.249999999999998         -12.5                    0.8488825104338202
5.125038771618699         -12.29758730529595       0.839313253904875
-7.5                      -4.499999999999998       2.634270235712429
-7.297566561865388        -4.624999999999999       2.564311909222027
5.499999999999998         -12.5                    0.8407925301557256
5.3751407540392           -12.29769047266774       0.8328389925401071
5.75                      -12.5                    0.8336388219721029
5.62530394006286          -12.297952513873353      0.8270108303669605
-7.5                      -4.249999999999998       2.744093896034032
-7.297566561865388        -4.374999999999999       2.683748312102868
5.999999999999999         -12.499999999999998      0.8274436682282666
5.87549348520752          -12.298384645793815      0.8218764208895987
-7.5                      -3.9999999999999964      2.83168152172794
-7.297566561865388        -4.124999999999999       2.782501684510144
6.25                      -12.5                    0.8222151335266702
6.125869195939302         -12.298765062451254      0.8174522874961662
6.5                       -12.5                    0.8179521832775826
6.375780386092047         -12.29973874917467       0.8137872231336395
-7.5                      -3.7499999999999964      2.894730186685306
-7.297566561865388        -3.8749999999999987      2.8578434762105243
6.75                      -12.5                    0.8146487933387222
6.626182432210402         -12.300205308922132      0.8108364149458716
7                         -12.5                    0.8122967847591654
6.87503177961564          -12.305878096790394      0.8087700388206388
-7.5                      -3.4999999999999973      2.931765071662976
-7.297566561865388        -3.624999999999998       2.907888080998667
7.25                      -12.5                    0.8108889263665681
7.122419833832843         -12.314273476999253      0.8074845608185405
7.5                       -12.5                    0.810420229275692
7.330549097287276         -12.337066163358275      0.8072946899941783
-7.500000000000001        -3.2499999999999964      2.94207158549983
-7.297566561865388        -3.374999999999998       2.93154715539956
7.5                       -12.250000000000018      0.8052116840967214
-7.500000000000001        -2.9999999999999964      2.9256182955069128
-7.297566561865388        -3.1249999999999964      2.928453926088061
7.5                       -12.000000000000018      0.7993168678533126
7.280325652603539         -12.121057339792108      0.8024570486366028
-7.5                      -2.7499999999999956      2.8830032281042057
-7.297566561865388        -2.8749999999999964      2.898895664085305
7.5                       -11.750000000000014      0.792985035722506
7.296816727387784         -11.860491593320134      0.7959187869876606
-7.5                      -2.4999999999999956      2.815437890815391
-7.297566561865388        -2.6249999999999964      2.8437783535785717
7.5                       -11.500000000000014      0.7864681614874844
7.2963067823546695        -11.619847917335983      0.789617677580522
-7.5                      -2.2499999999999956      2.7247622039586683
-7.297566561865388        -2.3749999999999964      2.764627323883575
7.5                       -11.250000000000014      0.78001633889474
7.296193798816304         -11.373053116495509      0.7831044973900275
-7.5                      -1.9999999999999956      2.6134656501610434
-7.297566561865388        -2.1249999999999964      2.6636075708733835
7.5                       -11.000000000000014      0.7738786745060371
7.296682635510101         -11.123081789633817      0.7766999210303972
-7.5                      -1.7499999999999956      2.484680556123308
-7.297566561865388        -1.8749999999999962      2.5435334785980204
7.5                       -10.750000000000014      0.7683039129989014
7.297215456100371         -10.87373242639923       0.7707506157054471
-7.5                      -1.4999999999999956      2.3421156729152424
-7.297566561865388        -1.6249999999999958      2.4078339449164776
7.5                       -10.500000000000014      0.7635418207047492
7.297469216310009         -10.624433076684582      0.7654868782510049
-7.5                      -1.2499999999999956      2.1899121152580348
-7.297566561865388        -1.3749999999999953      2.26044719167162
7.5                       -10.250000000000014      0.759845474803338
7.29754482162578          -10.374831736824435      0.7611506918995604
-7.500000000000001        -0.9999999999999947      2.032425399332746
-7.297566561865388        -1.124999999999995       2.105637877422176
7.5                       -10.000000000000014      0.7574745008050648
7.297566561865388         -10.125000000000014      0.7580002253090904
-7.5                      -0.7499999999999938      1.8739597334943354
-7.297566561865388        -0.8749999999999943      1.9477519114121264
7.5                       -9.750000000000014       0.7566993936983172
7.297566561865388         -9.875000000000014       0.7563017111538892
-7.5                      -0.4999999999999938      1.7184960440031964
-7.297566561865388        -0.6249999999999941      1.7909438440946592
7.5                       -9.500000000000014       0.7578073775758464
7.297566561865388         -9.625000000000014       0.7563335627593445
-7.5                      -0.24999999999999378     1.5694581701719816
-7.297566561865388        -0.37499999999999406     1.6389210288233353
7.5                       -9.250000000000014       0.7611078670216328
7.297566561865388         -9.375000000000014       0.7583909612462195
-7.5                      5.329070518200751E-15    1.4295518513982024
-7.297566561865388        -0.12499999999999427     1.494744981820298
7.5                       -9.000000000000014       0.7670215056194488
7.297566561865388         -9.125000000000014       0.7628122244891219
-7.5                      0.25000000000000533      1.3006929969348324
-7.297566561865388        0.12500000000000552      1.3607157249436879
7.5                       -8.750000000000014       0.7785306191882352
7.297566561865388         -8.875000000000014       0.7704411540528673
-7.5                      0.5000000000000053       1.1840221264855355
-7.297566561865388        0.3750000000000056       1.2383453629351833
-7.5                      0.7500000000000071       1.0799868315107952
-7.297566561865388        0.6250000000000062       1.128409447574212
7.5                       -8.500000000000014       0.8009093904720138
7.297566561865388         -8.625000000000014       0.7873660180668347
-7.5                      1.000000000000007        0.9884666851883065
-7.297566561865388        0.8750000000000068       1.031053443853657
-7.5                      1.250000000000007        0.9089149966924747
-7.297566561865388        1.1250000000000069       0.9459281468921003
7.5                       -8.250000000000014       0.8345452782676968
7.297566561865388         -8.375000000000014       0.8152457266862339
-7.5                      1.500000000000007        0.8404968086066459
-7.297566561865388        1.375000000000007        0.872330730753065
7.5                       -8.000000000000014       0.8800082220500508
7.297566561865388         -8.125000000000014       0.8545896993016083
-7.5                      1.750000000000007        0.7822096556357323
-7.297566561865388        1.625000000000007        0.8093344565185169
-7.5                      2.000000000000007        0.7329804978578331
-7.297566561865388        1.875000000000007        0.755897231768071
7.5                       -7.750000000000013       0.9380018687163375
7.297566561865388         -7.875000000000014       0.9060461905270144
-7.5                      2.250000000000007        0.6917375975715109
-7.297566561865388        2.125000000000007        0.7109453766750776
-7.5                      2.500000000000007        0.6574595413018752
-7.297566561865388        2.375000000000007        0.6734333067208791
7.5                       -7.5000000000000115      1.0092668704311814
7.297566561865388         -7.625000000000014       0.9703489037640098
-7.5                      2.750000000000007        0.6292053288176014
-7.297566561865388        2.625000000000007        0.642382347852097
-7.5                      3.000000000000009        0.6061299251399398
-7.297566561865388        2.875000000000007        0.6169029272790737
7.5                       -7.2500000000000115      1.094459974846847
7.297566561865388         -7.375000000000014       1.0482105575534117
-7.5                      3.250000000000009        0.5874893859878121
-7.297566561865388        3.125000000000007        0.5962044237740028
-7.5                      3.500000000000008        0.5726390124627182
-7.297566561865388        3.3750000000000075       0.5795964571697628
7.5                       -7.000000000000011       1.1940063731667538
7.297566561865388         -7.125000000000014       1.1401897234464202
-7.5                      3.750000000000008        0.5610272306823306
-7.297566561865388        3.6250000000000075       0.5664846718826874
-7.5                      4.00000000000001         0.5521871779040215
-7.297566561865388        3.8750000000000075       0.5563633261381683
7.5                       -6.750000000000011       1.3079304093303399
7.297566561865388         -6.875000000000014       1.2465324228233359
-7.5                      4.25000000000001         0.545727378296916
-7.297566561865388        4.125000000000009        0.5488063430527523
-7.5                      4.500000000000011        0.5413224276689086
-7.297566561865388        4.37500000000001         0.5434579526148341
7.5                       -6.500000000000011       1.4356785380766677
7.297566561865388         -6.625000000000014       1.3669978393626314
-7.5                      4.750000000000011        0.5387042682679105
-7.297566561865388        4.6250000000000115       0.5400236576320916
-7.5                      5.000000000000011        0.5376544013821836
-7.297566561865388        4.875000000000012        0.538261975804145
7.5                       -6.250000000000011       1.5759580000946096
7.297566561865388         -6.375000000000013       1.50068673097304
-7.5                      5.250000000000011        0.5379972331054326
-7.297566561865389        5.125000000000013        0.5379772213828301
7.5                       -6.000000000000011       1.726622408559822
7.297566561865388         -6.125000000000013       1.64590009837792
-7.5                      5.500000000000011        0.5395946552889045
-7.297566561865388        5.375000000000017        0.5390134703584285
-7.5                      5.750000000000011        0.5423419109581017
-7.297566561865387        5.625000000000031        0.5412497825715925
7.5                       -5.750000000000011       1.8846374534988308
7.297566561865388         -5.875000000000013       1.8000610101358532
-7.5                      6.000000000000011        0.5461647668705365
-7.297566561865384        5.87500000000009         0.5445967162589299
-7.5                      6.250000000000011        0.5510180045865001
-7.297566561865373        6.125000000000333        0.5489941527477553
-7.5                      6.500000000000011        0.5568852375550533
-7.297566561865314        6.375000000001305        0.554410442057804
7.5                       -5.500000000000011       2.046152593338531
7.297566561865388         -5.625000000000013       1.9597302353992248
-7.5                      6.750000000000011        0.5637800597130933
-7.297566561865044        6.625000000005127        0.5608428774109951
7.5                       -5.250000000000011       2.206686713782154
7.297566561865388         -5.375000000000013       2.120733801063022
-7.5                      7.000000000000011        0.5717485269750441
-7.29756656186382         6.875000000019817        0.5683195034137052
-7.5                      7.2500000000000115       0.5808729636249498
-7.29756656185848         7.125000000074949        0.5769022555299426
7.5                       -5.000000000000011       2.361410467098055
7.297566561865388         -5.125000000000012       2.278398559477111
-7.5                      7.5000000000000115       0.5912770679810166
-7.297566561836024        7.375000000276358        0.5866914144513081
-7.5                      7.750000000000013        0.6031322624847629
-7.297566561745047        7.625000000990684        0.5978313347148331
7.5                       -4.750000000000011       2.5054830259789305
7.297566561865388         -4.8750000000000115      2.427865814264136
-7.5                      8.000000000000014        0.6166651914241644
-7.2975665613904175       7.875000003442889        0.6105173678457506
-7.5                      8.250000000000014        0.632166233171552
-7.2975665600628234       8.125000011565119        0.6250038414273997
7.5                       -4.500000000000011       2.634385790184531
7.297566561865388         -4.625000000000011       2.5644319688168022
-7.5                      8.500000000000014        0.649998946292854
-7.297566555300503        8.375000037439014        0.6416128867665463
-7.5                      8.750000000000014        0.670611287709938
-7.297566538969233        8.625000116486598        0.6607441227955172
7.5                       -4.25000000000001        2.7441969481403756
7.297566561865388         -4.37500000000001        2.6838576844416564
-7.5                      9.000000000000014        0.694523914895027
-7.297566485545779        8.875000347700698        0.6828613026862299
-7.5                      9.250000000000014        0.7182034877919067
-7.2975663191367355       9.12500099571758         0.7074160652651259
7.5                       -4.00000000000001        2.831768993310251
7.297566561865388         -4.125000000000009       2.7825970014822192
-7.5                      9.500000000000014        0.7395145132175142
-7.297565826453352        9.375002745899595        0.7299881687841637
7.5                       -3.750000000000008       2.8947996453378377
7.297566561865388         -3.8750000000000075      2.857921978359435
-7.5                      9.750000000000014        0.7582898364452729
-7.297564445934005        9.625007366912326        0.750068790208997
-7.5                      10.000000000000014       0.7744728170590954
-7.2975608455778165       9.87501962835813         0.7675638472852225
-7.5                      10.250000000000014       0.7880533036493197
-7.2975527564169225       10.125053765536325       0.7824413193601526
7.5                       -3.500000000000008       2.9318147498906746
7.297566561865388         -3.6250000000000075      2.9079476685452703
-7.5                      10.500000000000014       0.7990659816233444
-7.297544700771562        10.375158554811264       0.794716577886711
-7.5                      10.750000000000014       0.8075865870131581
-7.297237570906325        10.625280909610685       0.8044450658576469
7.5                       -3.250000000000009       2.9421003601714584
7.297566561865388         -3.3750000000000075      2.9315863853127095
-7.5                      11.000000000000014       0.8137278111978627
-7.296637141477152        10.875912751841952       0.8117341497621201
7.5                       -3.000000000000009       2.9256256571914
7.297566561865388         -3.125000000000007       2.9284719843392772
-7.5                      11.250000000000014       0.8176348716873852
-7.295157557425814        11.12792707441762        0.8167182825659528
-7.5                      11.500000000000014       0.8194808977283623
-7.294713616206047        11.383188153295961       0.8195241416797278
7.5                       -2.750000000000007       2.882989262440138
7.297566561865388         -2.875000000000007       2.89889233974354
-7.5                      11.750000000000014       0.8194620316797071
-7.294986985216417        11.62828959551707        0.8202823715286572
-7.5                      12.000000000000018       0.8177928202480681
-7.2984011646841855       11.865385604953703       0.8193862596283266
7.5                       -2.500000000000007       2.8154032799226254
7.297566561865388         -2.625000000000007       2.8437540302090825
-7.5                      12.250000000000018       0.8147032935856119
-7.275397475498109        12.122115101058466       0.8169734189865296
-7.5                      12.5                     0.8104303937024988
-7.328022341935925        12.339061833572298       0.8135629380553604
7.5                       -2.250000000000007       2.72470824002029
7.297566561865388         -2.375000000000007       2.764582988241308
-7.25                     12.5                     0.8108984795034041
7.5                       -2.000000000000007       2.6133942407332684
7.297566561865388         -2.125000000000007       2.663544824236293
-7                        12.5                     0.8123052188231793
-7.114714234181513        12.323194066803016       0.8148841486302559
7.5                       -1.750000000000007       2.484594195586997
7.297566561865388         -1.875000000000007       2.5434545269461952
-6.75                     12.5                     0.8146549709777483
-6.877989465428228        12.305337452555117       0.8173519975478539
7.5                       -1.500000000000007       2.3420173589008484
7.297566561865388         -1.625000000000007       2.4077415437564422
-6.5                      12.5                     0.8179555295172779
-6.6303493269929845       12.299431906490378       0.8208402767303157
7.5                       -1.250000000000007       2.1898052020309424
7.297566561865388         -1.375000000000007       2.260344530355536
-6.25                     12.5                     0.8222145719132179
-6.379846550116931        12.298398915301492       0.8254475147028275
7.5                       -1.000000000000007       2.0323133979573824