% Model:              U2_backwards_compatible.mph
% Version:            COMSOL 5.1.0.234
% Date:               Aug 16 2022, 10:42
% Dimension:          2
% Nodes:              7634
% Expressions:        1
% Description:        Dependent variable u
% Length unit:        m
% x                       y                        u (1) @ t=1000
-7.5                      -12.5                    0.8104313328408097
-7.250000000000133        -12.5                    0.8108994321928296
-7.337467140714745        -12.329651574551194      0.8071310018072448
-7.499999999999999        -12.249999999999996      0.805222665137398
-7.00000000000013         -12.5                    0.8123062122493189
-7.121656495314211        -12.277385675229983      0.8066493599190468
-7.5                      -11.999999999999996      0.7993275253276408
-7.315679208259377        -12.12087219752599       0.8023993753489419
-6.750000000000128        -12.5                    0.8146560325730695
-6.861097408457507        -12.298460102229008      0.8086969747914087
-7.5                      -11.749999999999993      0.7929969154359963
-7.305678822689975        -11.878019377584284      0.7963718948283715
-6.500000000000124        -12.5                    0.8179566871383123
-6.618706031168089        -12.297578238319844      0.8108457702982229
-7.500000000000001        -11.499999999999993      0.7864820030620884
-7.300979653050844        -11.62754977113695       0.7898327728618292
-6.250000000000123        -12.5                    0.8222158540269824
-6.3730080229996915       -12.296731258729514      0.8137295219961126
-7.5                      -11.24999999999999       0.7800330501938374
-7.299892167059557        -11.376802265715625      0.7832196755853006
-6.000000000000121        -12.5                    0.8274396805414433
-6.123449325378588        -12.296850069422781      0.8174179784609347
-7.5                      -10.99999999999999       0.7738992259323115
-7.299236716008845        -11.126397090925856      0.7768043045492309
-5.750000000000117        -12.5                    0.8336293491320732
-5.873812060373251        -12.297197084502967      0.821849709589323
-7.5                      -10.749999999999986      0.7683291976403147
-7.298782900599218        -10.876065443257303      0.7708294813961217
-5.5000000000001155       -12.5                    0.8407768852528245
-5.624432920877559        -12.297449799498764      0.8269916787190067
-7.499999999999999        -10.499999999999986      0.7635725392425671
-7.29829725322039         -10.625679442536171      0.7655413118509932
-5.250000000000114        -12.5                    0.8488600994058895
-5.374778896194034        -12.297539107962342      0.8328203677449258
-7.5                      -10.249999999999984      0.7598819554095498
-7.297926680657121        -10.375393351214836      0.761194231858264
-5.00000000000011         -12.5                    0.857836470075673
-5.125000000000111        -12.297566561865388      0.839288225435392
-7.5                      -9.999999999999982       0.7575164441996135
-7.297710866790436        -10.125187325060487      0.7580422738401621
-4.750000000000108        -12.5                    0.8676357152359303
-4.8750000000001075       -12.297566561865388      0.846324865274256
-7.500000000000001        -9.74999999999998        0.7567456095751229
-7.297604477248478        -9.875068211773142       0.7563470106225424
-4.500000000000105        -12.5                    0.8781508054640245
-4.625000000000106        -12.297566561865386      0.853816795692956
-4.250000000000103        -12.5                    0.8892258721087799
-4.375000000000106        -12.297566561865388      0.8616104922460907
-7.5                      -9.499999999999979       0.7578556546130052
-7.297571022746962        -9.625016759688604       0.7563820049859519
-4.000000000000101        -12.5                    0.9006721029050045
-4.125000000000103        -12.297566561865388      0.8694973429226173
-3.7500000000000977       -12.5                    0.914385763028545
-3.8750000000001          -12.297566561865386      0.8774262428811744
-7.5                      -9.249999999999975       0.761155139778214
-7.29756685930099         -9.37500131685328        0.758440260061178
-3.500000000000096        -12.5                    0.9357939365920148
-3.6250000000000973       -12.297566561865388      0.8908533629830492
-7.5                      -8.999999999999975       0.76706434669407
-7.297566561865387        -9.124999999999973       0.7628588424505899
-3.2500000000000937       -12.5                    0.9643140171626192
-3.3750000000000946       -12.297566561865388      0.911208278825088
-3.0000000000000906       -12.5                    0.9990569221440081
-3.125000000000092        -12.297566561865388      0.9376951773939438
-7.5                      -8.749999999999972       0.7785658755411523
-7.297566561865387        -8.874999999999973       0.7704815235546859
-2.750000000000089        -12.5                    1.0390375782554373
-2.87500000000009         -12.297566561865388      0.9694334055887083
-2.5000000000000857       -12.5                    1.0831373637702482
-2.6250000000000875       -12.297566561865388      1.0054536386103623
-7.5                      -8.499999999999968       0.8009345604878998
-7.297566561865387        -8.624999999999972       0.7873972394700522
-2.2500000000000835       -12.5                    1.1300832393795341
-2.375000000000085        -12.297566561865388      1.0446709999328379
-2.0000000000000813       -12.5                    1.1784461979387162
-2.125000000000082        -12.297566561865388      1.0858738310016198
-7.5                      -8.249999999999964       0.834558454119455
-7.297566561865386        -8.374999999999968       0.8152656148611471
-1.7500000000000786       -12.5                    1.2266617400685527
-1.8750000000000797       -12.297566561865388      1.127730419095409
-1.5000000000000764       -12.5                    1.273072741691365
-1.6250000000000773       -12.297566561865388      1.1688149376106793
-7.5                      -7.9999999999999645      0.8800079773627991
-7.297566561865387        -8.124999999999964       0.854596668903076
-1.2500000000000742       -12.5                    1.3159925278963953
-1.3750000000000753       -12.297566561865388      1.2076519929787084
-1.000000000000071        -12.5                    1.3537833652851303
-1.1250000000000724       -12.297566561865386      1.2427770031028549
-7.5                      -7.749999999999961       0.9379871016451694
-7.297566561865386        -7.874999999999962       0.9060390658981333
-0.7500000000000693       -12.5                    1.3849434029457253
-0.8750000000000702       -12.297566561865388      1.272807521815201
-0.5000000000000662       -12.5                    1.4081937512614173
-0.6250000000000677       -12.297566561865388      1.2965189687792282
-7.5                      -7.49999999999996        1.0092366932596333
-7.297566561865387        -7.62499999999996        0.970326757202313
-0.25000000000006395      -12.5                    1.4225571176973186
-0.3750000000000651       -12.297566561865388      1.3129173416669981
-6.128431095930864E-14    -12.5                    1.4274202122388508
-0.12500000000006262      -12.297566561865386      1.3213015363208838
-7.499999999999999        -7.249999999999957       1.0944136860962606
-7.297566561865387        -7.374999999999958       1.0481726341886082
0.2499999999999405        -12.5                    1.4225737950723591
0.1249999999999396        -12.297566561865388      1.3213088613324437
0.49999999999994316       -12.5                    1.408226482524306
0.3749999999999419        -12.297566561865388      1.3129390444296558
-7.500000000000001        -6.999999999999956       1.1939435111297378
-7.297566561865387        -7.124999999999957       1.1401354577997205
0.7499999999999454        -12.5                    1.3849909835499956
0.6249999999999443        -12.297566561865388      1.2965542512918933
-7.5                      -6.749999999999954       1.3078508687185189
-7.297566561865387        -6.8749999999999565      1.2464615300375004
0.9999999999999485        -12.5                    1.353844090698053
0.8749999999999468        -12.297566561865388      1.2728551149763028
1.2499999999999503        -12.5                    1.3160643059761197
1.1249999999999492        -12.297566561865388      1.2428352518589965
-7.5                      -6.49999999999995        1.4355827230431604
-7.297566561865387        -6.624999999999953       1.3669104561279168
1.4999999999999534        -12.5                    1.2731532259794425
1.374999999999952         -12.297566561865388      1.207718963707537
1.7499999999999556        -12.5                    1.226748471527184
1.6249999999999547        -12.297566561865388      1.168888537307266
-7.5                      -6.249999999999947       1.5758469806949078
-7.297566561865386        -6.3749999999999485      1.5005835760298092
1.9999999999999578        -12.5                    1.1785367419695785
1.8749999999999563        -12.297566561865388      1.1278085149771362
2.2499999999999605        -12.5                    1.1301753059225756
2.1249999999999587        -12.297566561865388      1.08595435960447
-7.5                      -5.999999999999943       1.7264980433256258
-7.297566561865386        -6.124999999999945       1.6457826175614596
2.4999999999999627        -12.5                    1.0832289007549893
2.3749999999999614        -12.297566561865388      1.0447520566520347
2.749999999999965         -12.5                    1.0391268323226042
2.624999999999964         -12.297566561865388      1.0055335417380553
-7.5                      -5.7499999999999405      1.8845024413251956
-7.297566561865386        -5.874999999999942       1.799931468608991
2.999999999999968         -12.5                    0.999142464627479
2.8749999999999667        -12.297566561865388      0.9695107329135292
3.24999999999997          -12.5                    0.9643947374432073
3.1249999999999694        -12.297566561865388      0.9377687781208702
-7.5                      -5.499999999999939       2.046010426880907
-7.297566561865386        -5.624999999999939       1.9595917239990472
3.499999999999973         -12.5                    0.935869009114723
3.3749999999999716        -12.297566561865388      0.911277268834899
3.749999999999975         -12.5                    0.9144545994885384
3.624999999999974         -12.297566561865388      0.8909171166036808
-7.5                      -5.249999999999936       2.2065415251032308
-7.297566561865387        -5.374999999999936       2.12059013732244
3.999999999999977         -12.5                    0.9007342984351739
3.874999999999976         -12.297566561865388      0.8774843933190472
4.249999999999979         -12.5                    0.8892809579221842
4.124999999999978         -12.297566561865386      0.869549678508859
-7.5                      -4.9999999999999325      2.361266781025903
-7.297566561865386        -5.124999999999933       2.2782540859264166
4.4999999999999805        -12.5                    0.878198385719576
4.37499999999998          -12.297566561865388      0.861656703448948
4.749999999999982         -12.5                    0.8676755795495031
4.6249999999999805        -12.297566561865388      0.8538566692728368
-7.5                      -4.749999999999929       2.505345459987031
-7.297566561865386        -4.87499999999993        2.427725121494215
4.999999999999984         -12.5                    0.8578686256187029
4.875000237421131         -12.297566737232975      0.846358273836385
5.249999999999984         -12.5                    0.8488847830881173
5.1250387716186845        -12.29758730529595       0.8393155220233784
-7.5                      -4.499999999999925       2.6342587528504087
-7.297566561865386        -4.624999999999927       2.5642995899402554
5.499999999999988         -12.500000000000002      0.840794543924909
5.375140754039187         -12.297690472667737      0.8328409931347546
5.749999999999988         -12.5                    0.8336406109042175
5.625303940062854         -12.29795251387332       0.8270125957344222
-7.5                      -4.249999999999923       2.74408438587488
-7.297566561865386        -4.374999999999924       2.6837378134258647
5.99999999999999          -12.5                    0.8274452649422299
5.87549348520746          -12.298384645793568      0.8218779824463506
-7.5                      -3.999999999999921       2.831674217880811
-7.297566561865386        -4.124999999999922       2.782493277773858
6.249999999999991         -12.499999999999998      0.822216569450501
6.125869195938994         -12.29876506245044       0.8174536756225078
6.499999999999993         -12.5                    0.8179534888743877
6.375780386089769         -12.299738749169684      0.8137884683838982
-7.5                      -3.7499999999999174      2.894725249552519
-7.297566561865387        -3.8749999999999187      2.8578373582552357
6.749999999999995         -12.499999999999998      0.8146499983143688
6.626182432203677         -12.300205308903218      0.8108375460836655
6.9999999999999964        -12.5                    0.8122979182524599
6.875031779587783         -12.305878096783987      0.8087710886443852
-7.5                      -3.4999999999999147      2.931762595050111
-7.297566561865386        -3.6249999999999165      2.907884378414338
7.249999999999998         -12.5                    0.8108900171233943
7.122419833800932         -12.314273476995993      0.8074855596447267
7.5                       -12.5                    0.8104213058132265
7.3305490972724865        -12.337066163356116      0.807295677348068
-7.5                      -3.249999999999911       2.94207160423662
-7.297566561865386        -3.374999999999913       2.93154593197588
7.5                       -12.250000000000274      0.805212608808168
-7.5                      -2.9999999999999076      2.9256207904459544
-7.297566561865386        -3.1249999999999094      2.9284551893633513
7.5                       -12.00000000000027       0.7993176121739095
7.280325652561501         -12.121057339784308      0.8024578947451071
-7.5                      -2.749999999999906       2.883008126624101
-7.297566561865387        -2.8749999999999063      2.898899368171946
7.5                       -11.75000000000027       0.7929855713279151
7.296816727380562         -11.86049159324837       0.7959194275440217
-7.5                      -2.4999999999999023      2.8154450631579153
-7.297566561865387        -2.6249999999999036      2.8437843974813144
7.5                       -11.500000000000266      0.7864684603066091
7.296306782353468         -11.619847917324217      0.7896181026188658
-7.5                      -2.2499999999998987      2.724771457749181
-7.297566561865386        -2.3749999999999005      2.7646355466916077
7.5                       -11.250000000000263      0.7800163730378364
7.296193798816024         -11.373053116493208      0.7831046744929572
-7.5                      -1.999999999999897       2.613476726748503
-7.297566561865387        -2.124999999999898       2.6636177469030304
7.5                       -11.00000000000026       0.7738784161098201
7.296682635509787         -11.123081789632861      0.7766998193516278
-7.5                      -1.7499999999998934      2.484693132531994
-7.297566561865386        -1.8749999999998952      2.5435453163081996
7.5                       -10.750000000000256      0.768303333985842
7.297215456100137         -10.87373242639906       0.7707502082040253
-7.5                      -1.4999999999998899      2.342129372085205
-7.297566561865386        -1.6249999999998916      2.407847092932933
7.5                       -10.500000000000252      0.7635408924541197
7.297469216309853         -10.624433076684706      0.7654861369880623
-7.5                      -1.249999999999888       2.1899265251033975
-7.297566561865386        -1.374999999999889       2.2604612535791646
7.5                       -10.250000000000252      0.7598441677295934
7.297544821625707         -10.374831736824646      0.7611495877056557
-7.5                      -0.9999999999998845      2.032440098604799
-7.297566561865387        -1.124999999999886       2.1056524345629524
7.5                       -10.000000000000249      0.75747278383728
7.297566561865386         -10.125000000000252      0.7579987278403135
-7.5                      -0.749999999999881       1.8739743203647974
-7.297566561865386        -0.8749999999998832      1.9477665505426647
7.5                       -9.750000000000245       0.7566972336510386
7.297566561865387         -9.875000000000247       0.7562997883429516
-7.5                      -0.4999999999998792      1.7185101624242913
-7.297566561865387        -0.6249999999998802      1.790958185246968
7.5                       -9.500000000000242       0.7578047383955565
7.297566561865387         -9.625000000000243       0.7563311803611282
-7.5                      -0.24999999999987566     1.569471529696196
-7.297566561865387        -0.3749999999998772      1.6389347486160644
7.5                       -9.250000000000238       0.7611047089015561
7.297566561865387         -9.37500000000024        0.7583880817718643
-7.5                      1.2789769243681803E-13   1.4295642379282885
-7.297566561865387        -0.12499999999987388     1.4947578287410066
7.5                       -9.000000000000234       0.7670177834205102
7.297566561865387         -9.125000000000238       0.7628088061381214
-7.5                      0.25000000000013145      1.300704274091424
-7.297566561865387        0.1250000000001294       1.3607275252086195
7.5                       -8.750000000000231       0.7785262645444998
7.297566561865387         -8.875000000000234       0.7704371465021301
-7.5                      0.5000000000001332       1.1840322291585366
-7.297566561865387        0.37500000000013234      1.238356017639232
-7.5                      0.7500000000001368       1.0799957542264922
-7.297566561865387        0.6250000000001352       1.1284189233300561
7.5                       -8.500000000000231       0.8009042944413166
7.297566561865386         -8.625000000000231       0.7873613262300182
-7.5                      1.0000000000001403       0.9884744681068973
-7.297566561865387        0.8750000000001384       1.031061759719049
-7.5                      1.250000000000142        0.9089217115849418
-7.297566561865386        1.1250000000001412       0.9459353602018227
7.5                       -8.250000000000227       0.8345393249875969
7.297566561865387         -8.375000000000227       0.8152402386989116
-7.5                      1.5000000000001457       0.8405025463913677
-7.297566561865386        1.3750000000001439       0.8723369238181168
7.5                       -8.000000000000224       0.8800012925661531
7.297566561865386         -8.125000000000226       0.8545832978797182
-7.5                      1.7500000000001492       0.782214516279167
-7.297566561865386        1.6250000000001474       0.8093397253609996
-7.5                      2.000000000000151        0.73298458283227
-7.297566561865386        1.87500000000015         0.7559016773602077
7.5                       -7.75000000000022        0.9379938471551652
7.297566561865386         -7.875000000000222       0.9060387580131023
-7.5                      2.2500000000001545       0.6917410046701981
-7.297566561865387        2.1250000000001528       0.7109490986526952
-7.5                      2.500000000000158        0.6574623614152267
-7.297566561865387        2.3750000000001563       0.6734363992552437
7.5                       -7.500000000000217       1.0092576530968593
7.297566561865386         -7.6250000000002185      0.9703403296923451
-7.5                      2.75000000000016         0.6292076442188553
-7.297566561865386        2.625000000000159        0.6423848972462323
-7.5                      3.0000000000001634       0.6061318088577385
-7.297566561865387        2.8750000000001616       0.6169050108478237
7.5                       -7.250000000000214       1.0944494823738733
7.297566561865386         -7.375000000000216       1.0482007492242318
-7.5                      3.250000000000167        0.5874909019120613
-7.297566561865387        3.1250000000001648       0.5962061096199838
-7.5                      3.5000000000001705       0.5726402159095308
-7.297566561865387        3.3750000000001683       0.5795978045434457
7.5                       -7.000000000000212       1.1939945653577815
7.297566561865386         -7.125000000000213       1.1401786194275338
-7.5                      3.750000000000173        0.5610281692177508
-7.297566561865387        3.625000000000172        0.5664857318921626
-7.5                      4.000000000000175        0.5521878922875264
-7.297566561865386        3.875000000000174        0.5563641426416378
7.5                       -6.75000000000021        1.3079173015430097
7.297566561865387         -6.875000000000212       1.246520008663062
-7.5                      4.2500000000001785       0.5457279034528206
-7.297566561865387        4.125000000000177        0.5488069536205651
-7.5                      4.500000000000181        0.5413227936279726
-7.297566561865387        4.37500000000018         0.5434583894880031
7.5                       -6.500000000000206       1.4356642170907723
7.297566561865387         -6.625000000000209       1.3669841639371312
-7.5                      4.750000000000185        0.5387045010449847
-7.297566561865387        4.625000000000184        0.5400239486325776
-7.5                      5.000000000000188        0.5376545237711583
-7.297566561865387        4.875000000000187        0.5382621451712447
7.5                       -6.2500000000002025      1.575942636522745
7.297566561865386         -6.375000000000206       1.500671920960161
-7.5                      5.250000000000192        0.5379972653823242
-7.297566561865387        5.125000000000191        0.537977290522157
7.5                       -6.000000000000199       1.726606262431788
7.297566561865386         -6.125000000000202       1.6458843676518817
-7.5                      5.500000000000193        0.5395946158195051
-7.297566561865387        5.375000000000196        0.5390134584973004
-7.5                      5.750000000000195        0.5423418167096783
-7.297566561865387        5.625000000000213        0.5412497073187631
7.5                       -5.750000000000195       1.8846208700606237
7.297566561865387         -5.875000000000198       1.8000446608167515
-7.5                      6.000000000000199        0.5461646338286499
-7.297566561865383        5.8750000000002744       0.5445965940687834
-7.5                      6.2500000000002025       0.5510178480788999
-7.297566561865373        6.12500000000052         0.5489939992902446
-7.5                      6.500000000000206        0.5568850724852734
-7.297566561865314        6.375000000001497        0.5544102724961403
7.5                       -5.500000000000193       2.0461359876016485
7.297566561865387         -5.6250000000001945      1.9597136482199733
-7.5                      6.75000000000021         0.5637799007070915
-7.297566561865044        6.625000000005321        0.5608427065898088
7.5                       -5.250000000000192       2.2066705447779467
7.297566561865387         -5.375000000000192       2.1207174147004246
-7.5                      7.000000000000212        0.571748388445091
-7.29756656186382         6.875000000020015        0.5683193459612442
-7.5                      7.250000000000214        0.5808728597558956
-7.297566561858479        7.12500000007515         0.5769021258788706
7.5                       -5.000000000000188       2.3613952054715015
7.297566561865386         -5.12500000000019        2.278382841126348
-7.5                      7.500000000000217        0.5912770126448392
-7.297566561836021        7.375000000276561        0.5866913267836457
-7.5                      7.75000000000022         0.6031322690896367
-7.297566561745046        7.62500000099089         0.597831302837298
7.5                       -4.750000000000185       2.5054691205079354
7.297566561865386         -4.8750000000001865      2.4278512261608447
-7.5                      8.000000000000224        0.6166652727038802
-7.297566561390414        7.875000003443098        0.6105174050018717
-7.5                      8.250000000000227        0.6321664009196731
-7.297566560062822        8.12500001156533         0.6250039600519638
7.5                       -4.500000000000181       2.634373639167618
7.297566561865386         -4.625000000000183       2.5644189366452435
-7.5                      8.500000000000231        0.6499992110434355
-7.297566555300502        8.375000037439227        0.6416130981859807
-7.5                      8.750000000000231        0.6706116583633386
-7.297566538969229        8.625000116486815        0.660744436874723
7.5                       -4.2500000000001785      2.744186880092601
7.297566561865386         -4.37500000000018        2.683846572999444
-7.5                      9.000000000000234        0.6945243982774473
-7.2975664855457785       8.875000347700917        0.6828617274138379
-7.5                      9.250000000000238        0.7182040872606389
-7.2975663191367355       9.125000995717803        0.7074166060551182
7.5                       -4.000000000000175       2.831761258571428
7.297566561865386         -4.125000000000177       2.7825881007285322
-7.5                      9.500000000000242        0.7395152282924129
-7.297565826453351        9.375002745899819        0.729988827036477
7.5                       -3.750000000000173       2.8947944170995874
7.297566561865386         -3.875000000000174       2.8579154998947485
-7.5                      9.750000000000245        0.7582906630352116
-7.297564445934001        9.625007366912554        0.7500695636513189
-7.5                      10.000000000000249       0.7744737474956885
-7.297560845577814        9.875019628358361        0.7675647300054277
-7.5                      10.250000000000252       0.7880543268153747
-7.29755275641692         10.12505376553656        0.7824423018924231
7.5                       -3.5000000000001705      2.9318121308792584
7.297566561865387         -3.625000000000172       2.9079437497932776
-7.5                      10.500000000000252       0.7990670831734862
-7.29754470077156         10.375158554811502       0.7947176474001346
-7.5                      10.750000000000256       0.8075877496693077
-7.297237570905973        10.625280909610913       0.8044462064000015
7.5                       -3.250000000000167       2.9421003904304865
7.297566561865387         -3.3750000000001683      2.93158509710468
-7.5                      11.00000000000026        0.8137290151006836
-7.2966371414771585       10.875912751842193       0.8117353426853992
7.5                       -3.0000000000001634      2.92562831914224
7.297566561865387         -3.1250000000001648      2.928473337587913
-7.5                      11.250000000000263       0.8176360947835991
-7.295157557425831        11.127927074417856       0.8167195068006964
-7.5                      11.500000000000266       0.8194821161737466
-7.294713616206049        11.383188153296214       0.8195253735707712
7.5                       -2.75000000000016        2.882994481243106
7.297566561865387         -2.8750000000001616      2.898896288233161
-7.5                      11.75000000000027        0.8194632202419282
-7.294986985216372        11.6282895955173         0.8202835864361306
-7.5                      12.00000000000027        0.8177939526892456
-7.298401164683329        11.865385604953795       0.8193874341425155
7.5                       -2.500000000000158       2.8154109194836834
7.297566561865387         -2.625000000000159       2.8437604686728366
-7.5                      12.250000000000274       0.8147043430043003
-7.275397475493655        12.122115101058567       0.8169745250872495
-7.5                      12.5                     0.8104313328407923
-7.328022341935029        12.339061833572377       0.8135639577206029
7.5                       -2.2500000000001545      2.7247180971238225
7.297566561865387         -2.3750000000001563      2.764591747181315
-7.249999999999998        12.5                     0.8108994321928291
7.5                       -2.000000000000151       2.6134060411472793
7.297566561865387         -2.125000000000153       2.6635556647388205
-6.9999999999999964       12.5                     0.8123062122493186
-7.114714234181489        12.323194066803039       0.8148852007270942
7.5                       -1.7500000000001492      2.4846075961567498
7.297566561865386         -1.87500000000015        2.543467139537317
-6.749999999999995        12.499999999999998       0.8146560325730693
-6.877989465427923        12.305337452555392       0.81735310883896
7.5                       -1.5000000000001457      2.3420319584691387
7.297566561865386         -1.6250000000001474      2.4077555548329297
-6.499999999999993        12.5                     0.8179566871383123
-6.630349326992596        12.29943190649118        0.8208414712039628
7.5                       -1.250000000000142       2.1898205617479056
7.297566561865386         -1.3750000000001439      2.260359517951335
-6.249999999999991        12.499999999999998       0.8222158540269824
-6.3798465501165795       12.298398915302291       0.8254488196342228
7.5                       -1.0000000000001403      2.0323290688454723
7.297566561865386         -1.1250000000001412      2.1055439219147254
-5.99999999999999         12.5                     0.8274396805414433
-6.12874173189573         12.29854644695986        0.8312341242578875
7.5                       -0.7500000000001368      1.873861638350964
7.297566561865387         -0.8750000000001384      1.9476547235103483
-5.749999999999988        12.5                     0.8336293491320731