% Model:              u3.mph
% Version:            COMSOL 5.4.0.225
% Date:               Feb 1 2019, 13:09
% Dimension:          2
% Nodes:              7634
% Expressions:        1
% Description:        Dependent variable u
% Length unit:        m
% x                       y                        u (1) @ t=500
-7.5                      -12.5                    1.2309571336843546
-7.250000000000037        -12.5                    1.230268916771727
-7.3374671407145495       -12.329651574550818      1.2180511404721426
-7.5                      -12.25                   1.2126526224835377
-7.000000000000037        -12.5                    1.228213483426789
-7.121656495313863        -12.277385675228883      1.2130687284437884
-7.5                      -12                      1.1957102855985193
-7.315679208258853        -12.120872197525207      1.2033790442191323
-6.7500000000000355       -12.5                    1.2248182465396185
-6.861097408456697        -12.29846010222184       1.2117594232005409
-7.499999999999999        -11.75                   1.1800947137870919
-7.305678822690329        -11.878019377582177      1.187540734293328
-6.5000000000000355       -12.5                    1.2201280228623776
-6.618706031167112        -12.297578238322714      1.2078334899255212
-7.499999999999999        -11.5                    1.1657831665481977
-7.300979653050327        -11.627549771137687      1.1725232457879755
-6.250000000000034        -12.5                    1.2142039223162164
-6.373008022997354        -12.296731258736017      1.202671244540609
-7.5                      -11.25                   1.152763032717428
-7.299892167058572        -11.376802265717481      1.158804591199971
-6.000000000000034        -12.5                    1.2071217650974169
-6.123449325377528        -12.296850069424762      1.1963320878166692
-7.500000000000001        -11                      1.1410293764608128
-7.299236716007024        -11.126397090926773      1.1463975490065275
-5.750000000000032        -12.5                    1.1989704363843385
-5.873812060372788        -12.297197084503546      1.1889042950766326
-7.5                      -10.75                   1.13058250840164
-7.298782900589671        -10.876065443261353      1.1352833705699157
-5.500000000000032        -12.5                    1.1898501269631108
-5.624432920877358        -12.297449799498926      1.1804605712691514
-7.5                      -10.5                    1.1214255107668667
-7.298297253205412        -10.625679442540251      1.1254580983735665
-5.250000000000032        -12.5                    1.1798706228669278
-5.37477889619392         -12.29753910796238       1.1710725307220036
-7.5                      -10.25                   1.1135616945740168
-7.297926680647983        -10.375393351215616      1.11693240228064
-5.00000000000003         -12.5                    1.169149738048222
-5.125000000000029        -12.297566561865388      1.1608543223643262
-7.5                      -10                      1.1069919874753091
-7.297710866788179        -10.12518732506054       1.1097077122594168
-4.75000000000003         -12.5                    1.1578119188643698
-4.875000000000029        -12.297566561865388      1.1499149618994033
-7.5                      -9.75                    1.1017122852212973
-7.297604477248478        -9.875068211773158       1.103782371854367
-4.500000000000028        -12.5                    1.145987009965689
-4.625000000000028        -12.297566561865388      1.1383850083529532
-4.250000000000028        -12.5                    1.133809126125659
-4.375000000000028        -12.297566561865388      1.126391371534214
-7.499999999999999        -9.5                     1.097710832392976
-7.297571022746962        -9.625016759688622       1.099147816013702
-4.000000000000027        -12.5                    1.121415541295126
-4.1250000000000275       -12.297566561865388      1.114067093333615
-3.7500000000000266       -12.5                    1.1089454828810281
-3.875000000000027        -12.297566561865388      1.101550412484258
-7.5                      -9.250000000000002       1.094965728401965
-7.29756685930099         -9.375001316853307       1.0957867343188665
-3.500000000000026        -12.5                    1.0965387277995302
-3.6250000000000266       -12.297566561865388      1.0889835062146604
-7.500000000000001        -9.000000000000002       1.093442678324083
-7.297566561865388        -9.125                   1.0936711951255125
-3.250000000000025        -12.5                    1.0843339345149232
-3.375000000000026        -12.297566561865388      1.0765107910696188
-3.0000000000000244       -12.5                    1.0724667049483663
-3.125000000000025        -12.297566561865388      1.064276732784376
-7.500000000000001        -8.750000000000002       1.0930931212735082
-7.297566561865388        -8.875                   1.092760279071535
-2.750000000000023        -12.5                    1.0610674480449043
-2.8750000000000244       -12.297566561865388      1.0524232167657772
-2.500000000000023        -12.5                    1.050259190286489
-2.6250000000000235       -12.297566561865388      1.041086645833696
-7.5                      -8.500000000000002       1.0938528679207762
-7.297566561865388        -8.625                   1.0929980835021988
-2.2500000000000218       -12.5                    1.040155527781963
-2.3750000000000226       -12.297566561865388      1.0303950289856105
-2.0000000000000213       -12.5                    1.0308589228914984
-2.1250000000000218       -12.297566561865388      1.0204653716051155
-7.5                      -8.25                    1.0956413620939087
-7.297566561865388        -8.375                   1.0943124178623502
-1.7500000000000209       -12.5                    1.0224595105808518
-1.875000000000021        -12.297566561865388      1.0114016539912105
-1.5000000000000195       -12.5                    1.015034505023065
-1.6250000000000204       -12.297566561865388      1.0032935945553314
-7.5                      -8                       1.0983616493921702
-7.297566561865388        -8.125                   1.0966143745305228
-1.250000000000019        -12.5                    1.0086482052351273
-1.3750000000000195       -12.297566561865388      0.996216262315292
-1.0000000000000178       -12.5                    1.0033525123608709
-1.1250000000000184       -12.297566561865388      0.9902304673068162
-7.5                      -7.75                    1.1019010918270034
-7.297566561865388        -7.875                   1.0997986638595612
-0.7500000000000178       -12.5                    0.9991878079089647
-0.8750000000000177       -12.297566561865388      0.985383749675921
-0.5000000000000164       -12.5                    0.9961840098101463
-0.625000000000017        -12.297566561865388      0.9817117259027986
-7.5                      -7.5                     1.106132816634381
-7.297566561865388        -7.625                   1.1037447132163427
-0.250000000000016        -12.5                    0.9943616207273128
-0.37500000000001626      -12.297566561865388      0.979239534873515
-1.509903313490213E-14    -12.5                    0.9937326045270644
-0.12500000000001554      -12.297566561865388      0.9779831477655155
-7.500000000000001        -7.25                    1.1109178357959786
-7.297566561865389        -7.375                   1.1083184912579984
0.2499999999999858        -12.5                    0.9943009645997286
0.12499999999998535       -12.297566561865388      0.9779503511694393
0.4999999999999867        -12.5                    0.9960629451718791
0.37499999999998623       -12.297566561865388      0.9791412716803883
-7.500000000000001        -7                       1.1161077264810741
-7.297566561865389        -7.125                   1.1133749671526114
0.7499999999999876        -12.5                    0.999006829006408
0.624999999999987         -12.297566561865388      0.9815483751890185
-7.500000000000001        -6.75                    1.1215477264486005
-7.297566561865388        -6.875                   1.11876107135572
0.999999999999988         -12.5                    1.0031123585039659
0.8749999999999879        -12.297566561865388      0.9851559412680867
1.2499999999999893        -12.5                    1.008349859273969
1.1249999999999887        -12.297566561865388      0.9899390800517335
-7.5                      -6.5                     1.1270800755293624
-7.297566561865388        -6.625                   1.1243189940487868
1.4999999999999893        -12.5                    1.0146791923598228
1.3749999999999893        -12.297566561865388      0.9958624235554921
1.7499999999999907        -12.5                    1.0220486987164277
1.6249999999999896        -12.297566561865388      1.002878681594771
-7.5                      -6.249999999999999       1.1325474258021653
-7.297566561865388        -6.375                   1.1298896415388795
1.9999999999999911        -12.5                    1.030394320752429
1.8749999999999905        -12.297566561865388      1.010927297353587
2.2499999999999925        -12.5                    1.0396390832883544
2.1249999999999916        -12.297566561865388      1.0199334585961042
-7.5                      -5.999999999999999       1.1377961484075578
-7.297566561865388        -6.125                   1.1353160699435583
2.499999999999993         -12.5                    1.0496930840800334
2.3749999999999925        -12.297566561865388      1.0298077048923988
2.7499999999999933        -12.5                    1.0604540812589918
2.624999999999993         -12.297566561865388      1.0404463094927558
-7.5                      -5.749999999999999       1.1426793822079513
-7.297566561865388        -5.875                   1.1404467278874055
2.9999999999999947        -12.5                    1.0718086794369213
2.8749999999999933        -12.297566561865388      1.0517325075184003
3.2499999999999947        -12.5                    1.0836340249753833
3.1249999999999933        -12.297566561865388      1.0635385070262975
-7.5                      -5.499999999999999       1.1470596959512442
-7.297566561865388        -5.625                   1.1451383631775263
3.499999999999996         -12.5                    1.0957998464398642
3.3749999999999947        -12.297566561865388      1.0757280883487892
3.7499999999999964        -12.5                    1.1081706383631897
3.624999999999995         -12.297566561865388      1.0881595065946417
-7.5                      -5.249999999999998       1.1508112680593305
-7.297566561865388        -5.375                   1.1492584793636438
3.9999999999999973        -12.5                    1.1206077943866155
3.8749999999999964        -12.297566561865388      1.100688388164672
4.249999999999998         -12.5                    1.132971544700925
4.124999999999997         -12.297566561865388      1.1131703580527026
-7.500000000000001        -4.999999999999998       1.153821523419064
-7.297566561865388        -5.125                   1.1526872633846115
4.499999999999997         -12.5                    1.1451226262066738
4.374999999999998         -12.297566561865388      1.1254632311204569
4.749999999999998         -12.5                    1.1569236894096429
4.624999999999999         -12.297566561865388      1.1374287151495002
-7.5                      -4.749999999999998       1.1559922016014799
-7.297566561865388        -4.875                   1.1553189419349605
4.999999999999998         -12.5                    1.168240510388133
4.8750002374211485        -12.297566737232975      1.1489336973384339
5.249999999999998         -12.5                    1.178943108517637
5.125038771618699         -12.29758730529595       1.159854108601068
-7.5                      -4.499999999999998       1.1572398632112257
-7.297566561865388        -4.624999999999999       1.15706255888881
5.499999999999998         -12.5                    1.1889068808863055
5.3751407540392           -12.29769047266774       1.1700746531813353
5.75                      -12.5                    1.1980138447910311
5.62530394006286          -12.297952513873353      1.1794873298287671
-7.5                      -4.249999999999998       1.1574958685939538
-7.297566561865388        -4.374999999999999       1.1578421967691437
5.999999999999999         -12.499999999999998      1.20615404251034
5.87549348520752          -12.298384645793815      1.1879871448215316
-7.5                      -3.9999999999999964      1.156705884597702
-7.297566561865388        -4.124999999999999       1.1575966901813854
6.25                      -12.5                    1.2132271171145048
6.125869195939302         -12.298765062451254      1.1954680796022499
6.5                       -12.5                    1.2191440202679937
6.375780386092047         -12.29973874917467       1.201873170338912
-7.5                      -3.7499999999999964      1.1548289898786095
-7.297566561865388        -3.8749999999999987      1.1562788973864604
6.75                      -12.5                    1.223828759474084
6.626182432210402         -12.300205308922132      1.2070762596585591
7                         -12.5                    1.2272202062975288
6.87503177961564          -12.305878096790394      1.2113904978805186
-7.5                      -3.4999999999999973      1.1518364573883513
-7.297566561865388        -3.624999999999998       1.1538546075109182
7.25                      -12.5                    1.2292733552093704
7.122419833832843         -12.314273476999253      1.214622269751551
7.5                       -12.5                    1.2299608683750605
7.330549097287276         -12.337066163358275      1.217490109496164
-7.500000000000001        -3.2499999999999964      1.1477102947468978
-7.297566561865388        -3.374999999999998       1.1503011656347624
7.5                       -12.250000000000018      1.211539093495442
-7.500000000000001        -2.9999999999999964      1.142441620153647
-7.297566561865388        -3.1249999999999964      1.1456058969973222
7.5                       -12.000000000000018      1.1944774413254833
7.280325652603539         -12.121057339792108      1.2020683036333926
-7.5                      -2.7499999999999956      1.1360289445257843
-7.297566561865388        -2.8749999999999964      1.1397644059737926
7.5                       -11.750000000000014      1.1787404922386995
7.296816727387784         -11.860491593320134      1.1851129831829
-7.5                      -2.4999999999999956      1.1284764209661464
-7.297566561865388        -2.6249999999999964      1.1327788166116657
7.5                       -11.500000000000014      1.164305231272706
7.2963067823546695        -11.619847917335983      1.1706461476071939
-7.5                      -2.2499999999999956      1.1197921117070915
-7.297566561865388        -2.3749999999999964      1.1246560106988326
7.5                       -11.250000000000014      1.1511588761433211
7.296193798816304         -11.373053116495509      1.1570534898022762
-7.5                      -1.9999999999999956      1.1099863114788522
-7.297566561865388        -2.1249999999999964      1.1154059077842768
7.5                       -11.000000000000014      1.1392963847982218
7.296682635510101         -11.123081789633817      1.1445632298448325
-7.5                      -1.7499999999999956      1.09906995576476
-7.297566561865388        -1.8749999999999962      1.1050398203400384
7.5                       -10.750000000000014      1.128718008021652
7.297215456100371         -10.87373242639923       1.133381280916569
-7.5                      -1.4999999999999956      1.0870531334077127
-7.297566561865388        -1.6249999999999958      1.093568907198166
7.5                       -10.500000000000014      1.1194268265073615
7.297469216310009         -10.624433076684582      1.123478329103529
-7.5                      -1.2499999999999956      1.0739437161506233
-7.297566561865388        -1.3749999999999953      1.0810027401999607
7.5                       -10.250000000000014      1.1114262209953023
7.29754482162578          -10.374831736824435      1.11484711021499
-7.500000000000001        -0.9999999999999947      1.059746113468375
-7.297566561865388        -1.124999999999995       1.0673479932083338
7.5                       -10.000000000000014      1.1047172714626206
7.297566561865388         -10.125000000000014      1.1074981221432691
-7.5                      -0.7499999999999938      1.0444601600140122
-7.297566561865388        -0.8749999999999943      1.052607259752812
7.5                       -9.750000000000014       1.0992961207088014
7.297566561865388         -9.875000000000014       1.1014362184669082
-7.5                      -0.4999999999999938      1.0280801457855568
-7.297566561865388        -0.6249999999999941      1.0367780061328877
7.5                       -9.500000000000014       1.095151368034466
7.297566561865388         -9.625000000000014       1.0966604091379306
-7.5                      -0.24999999999999378     1.0105940065574086
-7.297566561865388        -0.37499999999999406     1.0198516714767847
7.5                       -9.250000000000014       1.092261588852414
7.297566561865388         -9.375000000000014       1.0931553650128103
-7.5                      5.329070518200751E-15    0.9919827053764262
-7.297566561865388        -0.12499999999999427     1.0018129359832033
7.5                       -9.000000000000014       1.0905930982008043
7.297566561865388         -9.125000000000014       1.0908944752218004
-7.5                      0.25000000000000533      0.9722198566111002
-7.297566561865388        0.12500000000000552      0.9826391947001231
7.5                       -8.750000000000014       1.0900980895475607
7.297566561865388         -8.875000000000014       1.0898377374570591
-7.5                      0.5000000000000053       0.9512716743235515
-7.297566561865388        0.3750000000000056       0.962300298568009
-7.5                      0.7500000000000071       0.9290973693607306
-7.297566561865388        0.6250000000000062       0.9407586595283491
7.5                       -8.500000000000014       1.090713278726771
7.297566561865388         -8.625000000000014       1.0899300926206863
-7.5                      1.000000000000007        0.9056501778321285
-7.297566561865388        0.8750000000000068       0.9179698653421521
-7.5                      1.250000000000007        0.8808792812857135
-7.297566561865388        1.1250000000000069       0.8938840159524962
7.5                       -8.250000000000014       1.09235916591178
7.297566561865388         -8.375000000000014       1.0911003323345827
-7.5                      1.500000000000007        0.8547329801146049
-7.297566561865388        1.375000000000007        0.8684480806226863
7.5                       -8.000000000000014       1.0949399966589586
7.297566561865388         -8.125000000000014       1.0932606825642373
-7.5                      1.750000000000007        0.8271636121737935
-7.297566561865388        1.625000000000007        0.84160968782003
-7.5                      2.000000000000007        0.7981348785473016
-7.297566561865388        1.875000000000007        0.813322903695326
7.5                       -7.750000000000013       1.0983444595005862
7.297566561865388         -7.875000000000014       1.096307126904618
-7.5                      2.250000000000007        0.7676324646324065
-7.297566561865388        2.125000000000007        0.7835567436901404
-7.5                      2.500000000000007        0.735679091584029
-7.297566561865388        2.375000000000007        0.75230743596177
7.5                       -7.5000000000000115      1.102447107475615
7.297566561865388         -7.625000000000014       1.1001204835803937
-7.5                      2.750000000000007        0.7023551938576741
-7.297566561865388        2.625000000000007        0.7196159052217413
-7.5                      3.000000000000009        0.6678211729345781
-7.297566561865388        2.875000000000007        0.6855901669297165
7.5                       -7.2500000000000115      1.1071104404521235
7.297566561865388         -7.375000000000014       1.1045681970694279
-7.5                      3.250000000000009        0.6323416330241407
-7.297566561865388        3.125000000000007        0.6505527962789412
-7.5                      3.500000000000008        0.6094457251649467
-7.297566561865388        3.3750000000000075       0.6187005840901487
7.5                       -7.000000000000011       1.1121875399774248
7.297566561865388         -7.125000000000014       1.1095067549612556
-7.5                      3.750000000000008        0.6054444984902833
-7.297566561865388        3.6250000000000075       0.6051391756681029
-7.5                      4.00000000000001         0.6209076678330995
-7.297566561865388        3.8750000000000075       0.6105499337511585
7.5                       -6.750000000000011       1.1175251133488997
7.297566561865388         -6.875000000000014       1.1147845988384708
-7.5                      4.25000000000001         0.6580628180331468
-7.297566561865388        4.125000000000009        0.6361839953409704
-7.5                      4.500000000000011        0.7211279671336119
-7.297566561865388        4.37500000000001         0.6852112247658705
7.5                       -6.500000000000011       1.1229667815163733
7.297566561865388         -6.625000000000014       1.1202453685356089
-7.5                      4.750000000000011        0.8161163550778259
-7.297566561865388        4.6250000000000115       0.7627105753768846
-7.5                      5.000000000000011        0.9500835195023365
-7.297566561865388        4.875000000000012        0.8752453251366069
7.5                       -6.250000000000011       1.1283564373136377
7.297566561865388         -6.375000000000013       1.125731303987427
-7.5                      5.250000000000011        1.1293806784861635
-7.297566561865389        5.125000000000013        1.0296789184951354
7.5                       -6.000000000000011       1.1335415057392395
7.297566561865388         -6.125000000000013       1.1310866280476952
-7.5                      5.500000000000011        1.356581896258646
-7.297566561865388        5.375000000000017        1.2308154514779872
-7.5                      5.750000000000011        1.6263588471784651
-7.297566561865387        5.625000000000031        1.4777621491442137
7.5                       -5.750000000000011       1.138375954707961
7.297566561865388         -5.875000000000013       1.136160745685185
-7.5                      6.000000000000011        1.921748271824211
-7.297566561865384        5.87500000000009         1.7598100532862195
-7.5                      6.250000000000011        2.213261258640912
-7.297566561865373        6.125000000000333        2.0538418158485707
-7.5                      6.500000000000011        2.4627173712742163
-7.297566561865314        6.375000000001305        2.325657068686303
7.5                       -5.500000000000011       1.142722930244678
7.297566561865388         -5.625000000000013       1.14081111740459
-7.5                      6.750000000000011        2.6312110126996395
-7.297566561865044        6.625000000005127        2.536025058226471
7.5                       -5.250000000000011       1.146456921485868
7.297566561865388         -5.375000000000013       1.1449056946167895
-7.5                      7.000000000000011        2.688365791637649
-7.29756656186382         6.875000000019817        2.6496028388961737
-7.5                      7.2500000000000115       2.6201380095860363
-7.29756656185848         7.125000000074949        2.6437003121503175
7.5                       -5.000000000000011       1.149465395028935
7.297566561865388         -5.125000000000012       1.1483248388338971
-7.5                      7.5000000000000115       2.434407307451433
-7.297566561836024        7.375000000276358        2.514864158580646
-7.5                      7.750000000000013        2.2392655650791027
-7.297566561745047        7.625000000990684        2.310965589966871
7.5                       -4.750000000000011       1.1516498722582669
7.297566561865388         -4.8750000000000115      1.1509626819252239
-7.5                      8.000000000000014        2.0902067213070437
-7.2975665613904175       7.875000003442889        2.148435211141027
-7.5                      8.250000000000014        1.9714344906259431
-7.2975665600628234       8.125000011565119        2.019689694826855
7.5                       -4.500000000000011       1.152926454803447
7.297566561865388         -4.625000000000011       1.1527279184905792
-7.5                      8.500000000000014        1.8737825052172543
-7.297566555300503        8.375000037439014        1.9146047938987394
-7.5                      8.750000000000014        1.7915651684064369
-7.297566538969233        8.625000116486598        1.8267000520430727
7.5                       -4.25000000000001        1.153225830311862
7.297566561865388         -4.37500000000001        1.1535440514252482
-7.5                      9.000000000000014        1.721020432198917
-7.297566485545779        8.875000347700698        1.7517012037812674
-7.5                      9.250000000000014        1.6595475650411722
-7.2975663191367355       9.12500099571758         1.6866688132642016
7.5                       -4.00000000000001        1.152492811939353
7.297566561865388         -4.125000000000009       1.1533491363162829
-7.5                      9.500000000000014        1.6052865644641738
-7.297565826453352        9.375002745899595        1.6295119564106788
7.5                       -3.750000000000008       1.1506854797344104
7.297566561865388         -3.8750000000000075      1.1520950884488748
-7.5                      9.750000000000014        1.5568707318091344
-7.297564445934005        9.625007366912326        1.5787018861293964
-7.5                      10.000000000000014       1.5132736766344805
-7.2975608455778165       9.87501962835813         1.5330952463715082
-7.5                      10.250000000000014       1.473710826049451
-7.2975527564169225       10.125053765536325       1.4918200604415894
7.5                       -3.500000000000008       1.1477740003958041
7.297566561865388         -3.6250000000000075      1.14974662761419
-7.5                      10.500000000000014       1.4375738724155773
-7.297544700771562        10.375158554811264       1.4541977494004292
-7.5                      10.750000000000014       1.4043858943665626
-7.297237570906325        10.625280909610685       1.4197090535001984
7.5                       -3.250000000000009       1.1437392042354009
7.297566561865388         -3.3750000000000075      1.14627994089852
-7.5                      11.000000000000014       1.3737698826082283
-7.296637141477152        10.875912751841952       1.387879941748155
7.5                       -3.000000000000009       1.138570995490232
7.297566561865388         -3.125000000000007       1.1416811429797493
-7.5                      11.250000000000014       1.34542616164281
-7.295157557425814        11.12792707441762        1.3582919790460923
-7.5                      11.500000000000014       1.319115847227071
-7.294713616206047        11.383188153295961       1.3305324552113051
7.5                       -2.750000000000007       1.1322666655585856
7.297566561865388         -2.875000000000007       1.1359446082670803
-7.5                      11.750000000000014       1.2946489014427067
-7.294986985216417        11.62828959551707        1.3057605542393904
-7.5                      12.000000000000018       1.2718747913449284
-7.2984011646841855       11.865385604953703       1.2834156951265825
7.5                       -2.500000000000007       1.1248291695386512
7.297566561865388         -2.625000000000007       1.1290712407635388
-7.5                      12.250000000000018       1.2506744718066314
-7.275397475498109        12.122115101058466       1.2607278421655905
-7.5                      12.5                     1.2309571336843543
-7.328022341935925        12.339061833572298       1.2431484862693007
7.5                       -2.250000000000007       1.116265415851655
7.297566561865388         -2.375000000000007       1.1210667370978078
-7.25                     12.5                     1.2302689167717267
7.5                       -2.000000000000007       1.1065846078448092
7.297566561865388         -2.125000000000007       1.1119398869617034
-7                        12.5                     1.2282134834267888
-7.114714234181513        12.323194066803016       1.243064539389562
7.5                       -1.750000000000007       1.0957966660396838
7.297566561865388         -1.875000000000007       1.1017009442425618
-6.75                     12.5                     1.2248182465396185
-6.877989465428228        12.305337452555117       1.241792023428035
7.5                       -1.500000000000007       1.0839107508957209
7.297566561865388         -1.625000000000007       1.0903600923120411
-6.5                      12.5                     1.2201280228623774
-6.6303493269929845       12.299431906490378       1.238125405705227
7.5                       -1.250000000000007       1.0709338992325454
7.297566561865388         -1.375000000000007       1.0779260189103919
-6.25                     12.5                     1.2142039223162164
-6.379846550116931        12.298398915301492       1.2327182270195616
7.5                       -1.000000000000007       1.0568697833521914