% Model:              U3_backwards_compatible.mph
% Version:            COMSOL 5.1.0.234
% Date:               Aug 16 2022, 11:25
% Dimension:          2
% Nodes:              7634
% Expressions:        1
% Description:        Dependent variable u
% Length unit:        m
% x                       y                        u (1) @ t=500
-7.5                      -12.5                    1.101580568246669
-7.250000000000133        -12.5                    1.100745944122082
-7.337467140714745        -12.329651574551194      1.086449186220188
-7.499999999999999        -12.249999999999996      1.0801448357672254
-7.00000000000013         -12.5                    1.0982530021322414
-7.121656495314211        -12.277385675229983      1.0805759570160862
-7.5                      -11.999999999999996      1.0603662500537772
-7.315679208259377        -12.12087219752599       1.0692994950297692
-6.750000000000128        -12.5                    1.0941343090267037
-6.861097408457507        -12.298460102229008      1.0789393133324727
-7.5                      -11.749999999999993      1.042190851523983
-7.305678822689975        -11.878019377584284      1.0508402909298427
-6.500000000000124        -12.5                    1.088442847444161
-6.618706031168089        -12.297578238319844      1.0742027339775204
-7.500000000000001        -11.499999999999993      1.025579213206205
-7.300979653050844        -11.62754977113695       1.0333888302470238
-6.250000000000123        -12.5                    1.0812505071197034
-6.3730080229996915       -12.296731258729514      1.0679708789602582
-7.5                      -11.24999999999999       1.0105033287609388
-7.299892167059557        -11.376802265715625      1.0174894687509928
-6.000000000000121        -12.5                    1.072645825165705
-6.123449325378588        -12.296850069422781      1.0603091243175362
-7.5                      -10.99999999999999       0.996943707272147
-7.299236716008845        -11.126397090925856      1.0031428768309085
-5.750000000000117        -12.5                    1.062731672233413
-5.873812060373251        -12.297197084502967      1.051321325052017
-7.5                      -10.749999999999986      0.9848866084733848
-7.298782900599218        -10.876065443257303      0.9903131891115278
-5.5000000000001155       -12.5                    1.051622799852922
-5.624432920877559        -12.297449799498764      1.0410897785283086
-7.499999999999999        -10.499999999999986      0.9743213363239965
-7.29829725322039         -10.625679442536171      0.9789814931306458
-5.250000000000114        -12.5                    1.0394434910048176
-5.374778896194034        -12.297539107962342      1.0296924676624537
-7.5                      -10.249999999999984      0.965237563717766
-7.297926680657121        -10.375393351214836      0.969145687512955
-5.00000000000011         -12.5                    1.0263254780956694
-5.125000000000111        -12.297566561865388      1.0172556465686504
-7.5                      -9.999999999999982       0.9576226743752354
-7.297710866790436        -10.125187325060487      0.9607932638248028
-4.750000000000108        -12.5                    1.0124062121632547
-4.8750000000001075       -12.297566561865388      1.0038967691033378
-7.500000000000001        -9.74999999999998        0.9514591392329081
-7.297604477248478        -9.875068211773142       0.9539088405331165
-4.500000000000105        -12.5                    0.9978275245116954
-4.625000000000106        -12.297566561865386      0.9897567270536954
-4.250000000000103        -12.5                    0.9827346711142604
-4.375000000000106        -12.297566561865388      0.9749694930633019
-7.5                      -9.499999999999979       0.9467219731476471
-7.297571022746962        -9.625016759688604       0.948470211391743
-4.000000000000101        -12.5                    0.9672757105993748
-4.125000000000103        -12.297566561865388      0.959674392120796
-3.7500000000000977       -12.5                    0.9516011292120335
-3.8750000000001          -12.297566561865386      0.9440158807182112
-7.5                      -9.249999999999975       0.9433763433897157
-7.29756685930099         -9.37500131685328        0.9444467089091849
-3.500000000000096        -12.5                    0.9358636141596531
-3.6250000000000973       -12.297566561865388      0.9281434194052277
-7.5                      -8.999999999999975       0.9413754221585409
-7.297566561865387        -9.124999999999973       0.9417975140201289
-3.2500000000000937       -12.5                    0.9202178812922441
-3.3750000000000946       -12.297566561865388      0.912211342790056
-3.0000000000000906       -12.5                    0.9048204734757922
-3.125000000000092        -12.297566561865388      0.8963786505204839
-7.5                      -8.749999999999972       0.9406585883863382
-7.297566561865387        -8.874999999999973       0.9404693471557452
-2.750000000000089        -12.5                    0.8898294616500158
-2.87500000000009         -12.297566561865388      0.8808086713091324
-2.5000000000000857       -12.5                    0.8754039839823239
-2.6250000000000875       -12.297566561865388      0.8656685717735467
-7.5                      -8.499999999999968       0.9411500866331397
-7.297566561865387        -8.624999999999972       0.9403944947130548
-2.2500000000000835       -12.5                    0.8617035433735167
-2.375000000000085        -12.297566561865388      0.8511286730653461
-2.0000000000000813       -12.5                    0.8488869513312163
-2.125000000000082        -12.297566561865388      0.83736149029875
-7.5                      -8.249999999999964       0.9427582416292655
-7.297566561865386        -8.374999999999968       0.9414894624034017
-1.7500000000000786       -12.5                    0.837110772702362
-1.8750000000000797       -12.297566561865388      0.8245403327230694
-1.5000000000000764       -12.5                    0.8265271180180723
-1.6250000000000773       -12.297566561865388      0.812837232061506
-7.5                      -7.9999999999999645      0.9453753054724997
-7.297566561865387        -8.124999999999964       0.943654458619104
-1.2500000000000742       -12.5                    0.8172806758104075
-1.3750000000000753       -12.297566561865388      0.8024199542492777
-1.000000000000071        -12.5                    0.809504989013052
-1.1250000000000724       -12.297566561865386      0.7934479400725549
-7.5                      -7.749999999999961       0.948877982641665
-7.297566561865386        -7.874999999999962       0.946773568363887
-0.7500000000000693       -12.5                    0.8033181433656177
-0.8750000000000702       -12.297566561865388      0.7860672213104126
-0.5000000000000662       -12.5                    0.7988182107455404
-0.6250000000000677       -12.297566561865388      0.7804046280878105
-7.5                      -7.49999999999996        0.953128638794992
-7.297566561865387        -7.62499999999996        0.9507156269376144
-0.25000000000006395      -12.5                    0.7960789229908722
-0.3750000000000651       -12.297566561865388      0.7765618572086989
-6.128431095930864E-14    -12.5                    0.7951460982615709
-0.12500000000006262      -12.297566561865386      0.7746101230416701
-7.499999999999999        -7.249999999999957       0.9579771569746535
-7.297566561865387        -7.374999999999958       0.9553357785966025
0.2499999999999405        -12.5                    0.796035285399085
0.1249999999999396        -12.297566561865388      0.774586111123305
0.49999999999994316       -12.5                    0.7987309446771412
0.3749999999999419        -12.297566561865388      0.7764898031463964
-7.500000000000001        -6.999999999999956       0.963263363730167
-7.297566561865387        -7.124999999999957       0.9604776617131766
0.7499999999999454        -12.5                    0.8031872775335077
0.6249999999999443        -12.297566561865388      0.7802844834942969
-7.5                      -6.749999999999954       0.9688199118084491
-7.297566561865387        -6.8749999999999565      0.9659761218132369
0.9999999999999485        -12.5                    0.8093305921873378
0.8749999999999468        -12.297566561865388      0.7858989270978679
1.2499999999999503        -12.5                    0.8170628861805462
1.1249999999999492        -12.297566561865388      0.7932314579423049
-7.5                      -6.49999999999995        0.9744754785844613
-7.297566561865387        -6.624999999999953       0.971660321010158
1.4999999999999534        -12.5                    0.826266179690815
1.374999999999952         -12.297566561865388      0.8021553088680403
1.7499999999999556        -12.5                    0.836807076776951
1.6249999999999547        -12.297566561865388      0.8125245615769962
-7.5                      -6.249999999999947       0.980058122377297
-7.297566561865386        -6.3749999999999485      0.9773570894328701
1.9999999999999578        -12.5                    0.8485410781850279
1.8749999999999563        -12.297566561865388      0.824179944154458
2.2499999999999605        -12.5                    0.8613163021468963
2.1249999999999587        -12.297566561865388      0.8369539152010429
-7.5                      -5.999999999999943       0.9853986331307194
-7.297566561865386        -6.124999999999945       0.9828943527351478
2.4999999999999627        -12.5                    0.8749764449488354
2.3749999999999614        -12.297566561865388      0.850674718013016
2.749999999999965         -12.5                    0.8893629774575503
2.624999999999964         -12.297566561865388      0.8651693579941361
-7.5                      -5.7499999999999405      0.9903337194940168
-7.297566561865386        -5.874999999999942       0.9881044700089167
2.999999999999968         -12.5                    0.9043166861330652
2.8749999999999667        -12.297566561865388      0.8802656584874086
3.24999999999997          -12.5                    0.9196787132272912
3.1249999999999694        -12.297566561865388      0.8957936414135882
-7.5                      -5.499999999999939       0.9947088900509377
-7.297566561865386        -5.624999999999939       0.9928273277348553
3.499999999999973         -12.5                    0.9352912433972644
3.3749999999999716        -12.297566561865388      0.9115864675642608
3.749999999999975         -12.5                    0.9509979503770946
3.624999999999974         -12.297566561865388      0.9274811010183467
-7.5                      -5.249999999999936       0.9983809104789586
-7.297566561865387        -5.374999999999936       0.9969130562596292
3.999999999999977         -12.5                    0.9666442847533568
3.874999999999976         -12.297566561865388      0.9433187846971159
4.249999999999979         -12.5                    0.9820776681963396
4.124999999999978         -12.297566561865386      0.9589453653732781
-7.5                      -4.9999999999999325      1.0012197483734453
-7.297566561865386        -5.124999999999933       1.0002242634762393
4.4999999999999805        -12.5                    0.9971476629185005
4.37499999999998          -12.297566561865388      0.9742114968333574
4.749999999999982         -12.5                    1.0117061975198347
4.6249999999999805        -12.297566561865388      0.9889727688688229
-7.5                      -4.749999999999929       1.0031099505959151
-7.297566561865386        -4.87499999999993        1.0026377132135076
4.999999999999984         -12.5                    1.0256079470426966
4.875000237421131         -12.297566737232975      1.003089864302934
5.249999999999984         -12.5                    1.0387109620152266
5.1250387716186845        -12.29758730529595       1.0164322477976009
-7.5                      -4.499999999999925       1.003951431480616
-7.297566561865386        -4.624999999999927       1.0040454104031984
5.499999999999988         -12.500000000000002      1.050877631804547
5.375140754039187         -12.297690472667737      1.0288772242701443
5.749999999999988         -12.5                    1.061976034675859
5.625303940062854         -12.29795251387332       1.0403081530963176
-7.5                      -4.249999999999923       1.0036596814345042
-7.297566561865386        -4.374999999999924       1.0043550885435428
5.99999999999999          -12.5                    1.0718816825585653
5.87549348520746          -12.298384645793568      1.050609621569792
-7.5                      -3.999999999999921       1.0021654322109383
-7.297566561865386        -4.124999999999922       1.0034901248128503
6.249999999999991         -12.499999999999998      1.0804796157220997
6.125869195938994         -12.29876506245044       1.0596632565485369
6.499999999999993         -12.5                    1.087666748963107
6.375780386089769         -12.299738749169684      1.0674047761550278
-7.5                      -3.7499999999999174      0.9994138358684314
-7.297566561865387        -3.8749999999999187      1.001388932473965
6.749999999999995         -12.499999999999998      1.0933543149890268
6.626182432203677         -12.300205308903218      1.0736901265669159
6.9999999999999964        -12.5                    1.097470403097881
6.875031779587783         -12.305878096783987      1.0788843720401504
-7.5                      -3.4999999999999147      0.9953632282941213
-7.297566561865386        -3.6249999999999165      0.9980038977294523
7.249999999999998         -12.5                    1.0999617674174775
7.122419833800932         -12.314273476995993      1.0827638939528195
7.5                       -12.5                    1.100795946279001
7.3305490972724865        -12.337066163356116      1.0861660225393825
-7.5                      -3.249999999999911       0.9899835550268895
-7.297566561865386        -3.374999999999913       0.9932999384667783
7.5                       -12.250000000000274      1.079212667380917
-7.5                      -2.9999999999999076      0.9832545374043814
-7.297566561865386        -3.1249999999999094      0.9872527655836155
7.5                       -12.00000000000027       1.0592848438429134
7.280325652561501         -12.121057339784308      1.0681267702624984
-7.5                      -2.749999999999906       0.9751636516645452
-7.297566561865387        -2.8749999999999063      0.9798469245546304
7.5                       -11.75000000000027       1.0409584296006553
7.296816727380562         -11.86049159324837       1.0483619432190554
-7.5                      -2.4999999999999023      0.9657039836818381
-7.297566561865387        -2.6249999999999036      0.9710736866871287
7.5                       -11.500000000000266      1.0241934746799068
7.296306782353468         -11.619847917324217      1.0315441197730062
-7.5                      -2.2499999999998987      0.9548720086886733
-7.297566561865386        -2.3749999999999005      0.9609288473495813
7.5                       -11.250000000000263      1.008961626265044
7.296193798816024         -11.373053116493208      1.015782327256174
-7.5                      -1.999999999999897       0.9426653296827007
-7.297566561865387        -2.124999999999898       0.9494104735327525
7.5                       -11.00000000000026       0.9952431202570072
7.296682635509787         -11.123081789632861      1.001330213256965
-7.5                      -1.7499999999998934      0.9290803910521471
-7.297566561865386        -1.8749999999998952      0.9365166264029107
7.5                       -10.750000000000256      0.9830239962562123
7.297215456100137         -10.87373242639906       0.9884124900308123
-7.5                      -1.4999999999998899      0.9141101657030756
-7.297566561865386        -1.6249999999998916      0.922243066692956
7.5                       -10.500000000000252      0.972293410876067
7.297469216309853         -10.624433076684706      0.9769809024959869
-7.5                      -1.249999999999888       0.8977417946297009
-7.297566561865386        -1.374999999999889       0.9065809321005746
7.5                       -10.250000000000252      0.9630409793130538
7.297544821625707         -10.374831736824646      0.9670127109231483
-7.5                      -0.9999999999998845      0.879954136871231
-7.297566561865387        -1.124999999999886       0.8895143560822215
7.5                       -10.000000000000249      0.9552541321111859
7.297566561865386         -10.125000000000252      0.9585058412851603
-7.5                      -0.749999999999881       0.8607151639059194
-7.297566561865386        -0.8749999999998832      0.8710179757212632
7.5                       -9.750000000000245       0.9489155080962983
7.297566561865387         -9.875000000000247       0.951452300024843
-7.5                      -0.4999999999998792      0.8399791036058278
-7.297566561865387        -0.6249999999998802      0.8510542511440286
7.5                       -9.500000000000242       0.9440004290953022
7.297566561865387         -9.625000000000243       0.9458385124547181
-7.5                      -0.24999999999987566     0.8176832015007918
-7.297566561865387        -0.3749999999998772      0.8295704876968434
7.5                       -9.250000000000238       0.940474527043714
7.297566561865387         -9.37500000000024        0.9416359887886462
-7.5                      1.2789769243681803E-13   0.7937439159636329
-7.297566561865387        -0.12499999999987388     0.8064954107706829
7.5                       -9.000000000000234       0.9382916138594114
7.297566561865387         -9.125000000000238       0.9388053515195295
-7.5                      0.25000000000013145      0.7680522908121584
-7.297566561865387        0.1250000000001294       0.7817350855595514
7.5                       -8.750000000000231       0.9373918976974253
7.297566561865387         -8.875000000000234       0.937294329802154
-7.5                      0.5000000000001332       0.740468141091406
-7.297566561865387        0.37500000000013234      0.755167890550461
-7.5                      0.7500000000001368       0.7108125264147436
-7.297566561865387        0.6250000000001352       0.7266381293171001
7.5                       -8.500000000000231       0.9377006512958017
7.297566561865386         -8.625000000000231       0.937036154653777
-7.5                      1.0000000000001403       0.6788577441043434
-7.297566561865387        0.8750000000001384       0.6959476776746238
-7.5                      1.250000000000142        0.6443137185734011
-7.297566561865386        1.1250000000001412       0.6628447798721311
7.5                       -8.250000000000227       0.93912742862708
7.297566561865387         -8.375000000000227       0.9379484614404406
-7.5                      1.5000000000001457       0.6068091743444841
-7.297566561865386        1.3750000000001439       0.6270086871987162
7.5                       -8.000000000000224       0.9415659047320858
7.297566561865386         -8.125000000000226       0.9399327903434166
-7.5                      1.7500000000001492       0.5658654304290334
-7.297566561865386        1.6250000000001474       0.5880282447896991
-7.5                      2.000000000000151        0.5208604816895219
-7.297566561865386        1.87500000000015         0.5453718412555756
7.5                       -7.75000000000022        0.9448943821804113
7.297566561865386         -7.875000000000222       0.9428747479549336
-7.5                      2.2500000000001545       0.47098289747126615
-7.297566561865387        2.1250000000001528       0.4983458011890482
-7.5                      2.500000000000158        0.4151841313304126
-7.297566561865387        2.3750000000001563       0.4460402206352498
7.5                       -7.500000000000217       0.9489769692450358
7.297566561865386         -7.6250000000002185      0.9466448565450495
-7.5                      2.75000000000016         0.3521675680489635
-7.297566561865386        2.625000000000159        0.3872722126620605
-7.5                      3.0000000000001634       0.2805127895792235
-7.297566561865387        2.8750000000001616       0.32057131320159526
7.5                       -7.250000000000214       0.9536653936571806
7.297566561865386         -7.375000000000216       0.9511000757932413
-7.5                      3.250000000000167        0.19910528520397344
-7.297566561865387        3.1250000000001648       0.2446941432940983
-7.5                      3.5000000000001705       0.14038921686101474
-7.297566561865387        3.3750000000001683       0.16868898076730496
7.5                       -7.000000000000212       0.9588013759693886
7.297566561865386         -7.125000000000213       0.9560859393641415
-7.5                      3.750000000000173        0.11176788425137225
-7.297566561865387        3.625000000000172        0.12605583308057747
-7.5                      4.000000000000175        0.10670661162605416
-7.297566561865386        3.875000000000174        0.10952779495324268
7.5                       -6.75000000000021        0.9642194519062531
7.297566561865387         -6.875000000000212       0.9614392099035663
-7.5                      4.2500000000001785       0.12441298536693156
-7.297566561865387        4.125000000000177        0.11535937427220118
-7.5                      4.500000000000181        0.17029972833558782
-7.297566561865387        4.37500000000018         0.14588997473180007
7.5                       -6.500000000000206       0.9697501065648025
7.297566561865387         -6.625000000000209       0.9669909243437446
-7.5                      4.750000000000185        0.25673710046044484
-7.297566561865387        4.625000000000184        0.20986851104720008
-7.5                      5.000000000000188        0.4039395063703726
-7.297566561865387        4.875000000000187        0.32365918170789826
7.5                       -6.2500000000002025      0.9752230668381993
7.297566561865386         -6.375000000000206       0.9725696792890305
-7.5                      5.250000000000192        0.6333850047600122
-7.297566561865387        5.125000000000191        0.5116679552929382
7.5                       -6.000000000000199       0.9804705928212522
7.297566561865386         -6.125000000000202       0.9780049950514226
-7.5                      5.500000000000193        0.9071301414784144
-7.297566561865387        5.375000000000196        0.7633910132004206
-7.5                      5.750000000000195        1.2342952707763992
-7.297566561865387        5.625000000000213        1.057706529054826
7.5                       -5.750000000000195       0.9853306140886059
7.297566561865387         -5.875000000000198       0.9831305969273757
-7.5                      6.000000000000199        1.6195882304690843
-7.297566561865383        5.8750000000002744       1.409524774958691
-7.5                      6.2500000000002025       2.0404026414409744
-7.297566561865373        6.12500000000052         1.810692820325453
-7.5                      6.500000000000206        2.4439794630413987
-7.297566561865314        6.375000000001497        2.223736009679252
7.5                       -5.500000000000193       0.9896495716398844
7.297566561865387         -5.6250000000001945      0.9877874629460398
-7.5                      6.75000000000021         2.7575278289710923
-7.297566561865044        6.625000000005321        2.584790911999122
7.5                       -5.250000000000192       0.9932848492855934
7.297566561865387         -5.375000000000192       0.9918265071742552
-7.5                      7.000000000000212        2.911200328113452
-7.29756656186382         6.875000000020015        2.820531340546148
-7.5                      7.250000000000214        2.8639846243820757
-7.297566561858479        7.12500000007515         2.8737567119660556
7.5                       -5.000000000000188       0.996106707050437
7.297566561865386         -5.12500000000019        0.9951107946804267
-7.5                      7.500000000000217        2.622206042725475
-7.297566561836021        7.375000000276561        2.7260955424728732
-7.5                      7.75000000000022         2.3595063867288366
-7.297566561745046        7.62500000099089         2.4528505716406706
7.5                       -4.750000000000185       0.9979996611900551
7.297566561865386         -4.8750000000001865      0.9975172159042058
-7.5                      8.000000000000224        2.1635903099760934
-7.297566561390414        7.875000003443098        2.238386344432594
-7.5                      8.250000000000227        2.010266922247897
-7.297566560062822        8.12500001156533         2.0715142974120258
7.5                       -4.500000000000181       0.9988632879392564
7.297566561865386         -4.625000000000183       0.9989375816716174
-7.5                      8.500000000000231        1.8859455998891388
-7.297566555300502        8.375000037439227        1.937245467204827
-7.5                      8.750000000000231        1.7824244318657427
-7.297566538969229        8.625000116486815        1.8262110622622514
7.5                       -4.2500000000001785      0.9986124585805302
7.297566561865386         -4.37500000000018        0.9992791326810341
-7.5                      9.000000000000234        1.6943964821452029
-7.2975664855457785       8.875000347700917        1.7323636760811014
-7.5                      9.250000000000238        1.6182612117252646
-7.2975663191367355       9.125000995717803        1.6516208652900612
7.5                       -4.000000000000175       0.9971770396917582
7.297566561865386         -4.125000000000177       0.9984644865111054
-7.5                      9.500000000000242        1.5514841670360555
-7.297565826453351        9.375002745899819        1.5811245479339995
7.5                       -3.750000000000173       0.9945011129431869
7.297566561865386         -3.875000000000174       0.9964310691479764
-7.5                      9.750000000000245        1.4922281394667427
-7.297564445934001        9.625007366912554        1.518813587775737
-7.5                      10.000000000000249       1.4391292830158582
-7.297560845577814        9.875019628358361        1.4631646523229114
-7.5                      10.250000000000252       1.3911553310075186
-7.29755275641692         10.12505376553656        1.4130279130110244
7.5                       -3.5000000000001705      0.9905417826920276
7.297566561865387         -3.625000000000172       0.9931300954593915
-7.5                      10.500000000000252       1.3475125837041275
-7.29754470077156         10.375158554811502       1.3675168086524996
-7.5                      10.750000000000256       1.3075830348801079
-7.297237570905973        10.625280909610913       1.3259567138446056
7.5                       -3.250000000000167       0.9852676466761788
7.297566561865387         -3.3750000000001683      0.988525173448528
-7.5                      11.00000000000026        1.2708807650995726
-7.2966371414771585       10.875912751842193       1.2877414572097743
7.5                       -3.0000000000001634      0.9786570057326848
7.297566561865387         -3.1250000000001648      0.9825906106617891
-7.5                      11.250000000000263       1.2370209621718875
-7.295157557425831        11.127927074417856       1.2523420804448067
-7.5                      11.500000000000266       1.2056974131559683
-7.294713616206049        11.383188153296214       1.2192458950779186
7.5                       -2.75000000000016        0.9706958834915982
7.297566561865387         -2.8750000000001616      0.9753094984964495
-7.5                      11.75000000000027        1.1766663373708088
-7.294986985216372        11.6282895955173         1.1898113979126876
-7.5                      12.00000000000027        1.1497338355630924
-7.298401164683329        11.865385604953795       1.1633469236019678
7.5                       -2.500000000000158       0.961375917498883
7.297566561865387         -2.625000000000159       0.9666716423970031
-7.5                      12.250000000000274       1.1247452084340057
-7.275397475493655        12.122115101058567       1.1365581977623924
-7.5                      12.5                     1.1015805682466457
-7.328022341935029        12.339061833572377       1.115880458511664
7.5                       -2.2500000000001545      0.9506921703389292
7.297566561865387         -2.3750000000001563      0.9566713942324522
-7.249999999999998        12.5                     1.1007459441220815
7.5                       -2.000000000000151       0.9386408940854318
7.297566561865387         -2.125000000000153       0.9453054286615846
-6.9999999999999964       12.5                     1.0982530021322419
-7.114714234181489        12.323194066803039       1.115724475531735
7.5                       -1.7500000000001492      0.9252172645900968
7.297566561865386         -1.87500000000015        0.9325704889785872
-6.749999999999995        12.499999999999998       1.094134309026704
-6.877989465427923        12.305337452555392       1.1141122266239527
7.5                       -1.5000000000001457      0.9104130841499268
7.297566561865386         -1.6250000000001474      0.9184611104345161
-6.499999999999993        12.5                     1.088442847444161
-6.630349326992596        12.29943190649118        1.109622691372756
7.5                       -1.250000000000142       0.8942144319600778
7.297566561865386         -1.3750000000001439      0.9029673105965096
-6.249999999999991        12.499999999999998       1.0812505071197034
-6.3798465501165795       12.298398915302291       1.1030271620882235
7.5                       -1.0000000000001403      0.8765992209055553
7.297566561865386         -1.1250000000001412      0.8860722166987979
-5.99999999999999         12.5                     1.0726458251657047
-6.12874173189573         12.29854644695986        1.094795553240634
7.5                       -0.7500000000001368      0.8575345954422202
7.297566561865387         -0.8750000000001384      0.8677495783400581