% Model:              U3_backwards_compatible_without_2.mph
% Version:            COMSOL 5.1.0.234
% Date:               Sep 5 2022, 09:52
% Dimension:          2
% Nodes:              7634
% Expressions:        1
% Description:        Dependent variable u
% Length unit:        m
% x                       y                        u (1) @ t=500
-7.5                      -12.5                    0.6225943301644943
-7.250000000000133        -12.5                    0.622545155540823
-7.337467140714745        -12.329651574551194      0.6225983705688799
-7.499999999999999        -12.249999999999996      0.6226457707924467
-7.00000000000013         -12.5                    0.6223950557378092
-7.121656495314211        -12.277385675229983      0.6225243272130186
-7.5                      -11.999999999999996      0.6227917935421367
-7.315679208259377        -12.12087219752599       0.6226849140306184
-6.750000000000128        -12.5                    0.6221377601040031
-6.861097408457507        -12.298460102229008      0.6223037911327617
-7.5                      -11.749999999999993      0.623022254253601
-7.305678822689975        -11.878019377584284      0.6228712580681507
-6.500000000000124        -12.5                    0.6217671762301544
-6.618706031168089        -12.297578238319844      0.6219968631414151
-7.500000000000001        -11.499999999999993      0.6233156924403377
-7.300979653050844        -11.62754977113695       0.62314439867904
-6.250000000000123        -12.5                    0.6212840918397163
-6.3730080229996915       -12.296731258729514      0.6215724808028685
-7.5                      -11.24999999999999       0.6236326577302458
-7.299892167059557        -11.376802265715625      0.6234726048714306
-6.000000000000121        -12.5                    0.6207054346284255
-6.123449325378588        -12.296850069422781      0.621028573276787
-7.5                      -10.99999999999999       0.6239064138735702
-7.299236716008845        -11.126397090925856      0.6238058838441841
-5.750000000000117        -12.5                    0.6200761914429066
-5.873812060373251        -12.297197084502967      0.6203961166370854
-7.5                      -10.749999999999986      0.6240310568238693
-7.298782900599218        -10.876065443257303      0.6240640316130931
-5.5000000000001155       -12.5                    0.6194839934470786
-5.624432920877559        -12.297449799498764      0.6197352246063393
-7.499999999999999        -10.499999999999986      0.6238472749673676
-7.29829725322039         -10.625679442536171      0.6241214307567376
-5.250000000000114        -12.5                    0.619076566445181
-5.374778896194034        -12.297539107962342      0.619153273852627
-7.5                      -10.249999999999984      0.62312623088496
-7.297926680657121        -10.375393351214836      0.6237912067848995
-5.00000000000011         -12.5                    0.6190825290419062
-5.125000000000111        -12.297566561865388      0.61882824748511
-7.5                      -9.999999999999982       0.6215525257907315
-7.297710866790436        -10.125187325060487      0.6228086696928905
-4.750000000000108        -12.5                    0.6198365025953233
-4.8750000000001075       -12.297566561865388      0.619029467661785
-7.500000000000001        -9.74999999999998        0.6187079809582396
-7.297604477248478        -9.875068211773142       0.6208139111631484
-4.500000000000105        -12.5                    0.6218101367465305
-4.625000000000106        -12.297566561865386      0.6201449176304942
-4.250000000000103        -12.5                    0.6256504700117453
-4.375000000000106        -12.297566561865388      0.6227143495208883
-7.5                      -9.499999999999979       0.6140595197584668
-7.297571022746962        -9.625016759688604       0.6173355919259661
-4.000000000000101        -12.5                    0.6322865400238935
-4.125000000000103        -12.297566561865388      0.6274747355041437
-3.7500000000000977       -12.5                    0.6467451477257605
-3.8750000000001          -12.297566561865386      0.6358216152206703
-7.5                      -9.249999999999975       0.606951837497034
-7.29756685930099         -9.37500131685328        0.6117802496240264
-3.500000000000096        -12.5                    0.6814153222187639
-3.6250000000000973       -12.297566561865388      0.659516755633761
-7.5                      -8.999999999999975       0.5967432691465304
-7.297566561865387        -9.124999999999973       0.6034575403375709
-3.2500000000000937       -12.5                    0.7402612524358244
-3.3750000000000946       -12.297566561865388      0.7049706551633115
-3.0000000000000906       -12.5                    0.8285417233713588
-3.125000000000092        -12.297566561865388      0.7765779356024346
-7.5                      -8.749999999999972       0.5866451774512284
-7.297566561865387        -8.874999999999973       0.5923210033518568
-2.750000000000089        -12.5                    0.9525329878829925
-2.87500000000009         -12.297566561865388      0.8800870256646073
-2.5000000000000857       -12.5                    1.1179945536966807
-2.6250000000000875       -12.297566561865388      1.0216012654109898
-7.5                      -8.499999999999968       0.5826677141816572
-7.297566561865387        -8.624999999999972       0.5862495958998313
-2.2500000000000835       -12.5                    1.32759356631832
-2.375000000000085        -12.297566561865388      1.2055868745089986
-2.0000000000000813       -12.5                    1.5776393438968768
-2.125000000000082        -12.297566561865388      1.4319441518901426
-7.5                      -8.249999999999964       0.5826225927882291
-7.297566561865386        -8.374999999999968       0.5851796120227237
-1.7500000000000786       -12.5                    1.8555387052710703
-1.8750000000000797       -12.297566561865388      1.6929580699278428
-1.5000000000000764       -12.5                    2.140159294023462
-1.6250000000000773       -12.297566561865388      1.9719679915439257
-7.5                      -7.9999999999999645      0.584550378263932
-7.297566561865387        -8.124999999999964       0.5870658713121725
-1.2500000000000742       -12.5                    2.4064023451062844
-1.3750000000000753       -12.297566561865388      2.2457025077824686
-1.000000000000071        -12.5                    2.6324359275329283
-1.1250000000000724       -12.297566561865386      2.4903341585163408
-7.5                      -7.749999999999961       0.5866840241755923
-7.297566561865386        -7.874999999999962       0.5900228079124376
-0.7500000000000693       -12.5                    2.8055544137790673
-0.8750000000000702       -12.297566561865388      2.6883486234196403
-0.5000000000000662       -12.5                    2.9233382756641757
-0.6250000000000677       -12.297566561865388      2.8322372760866092
-7.5                      -7.49999999999996        0.5874177137707238
-7.297566561865387        -7.62499999999996        0.5923202229296854
-0.25000000000006395      -12.5                    2.990132036466113
-0.3750000000000651       -12.297566561865388      2.923233784732668
-6.128431095930864E-14    -12.5                    3.0115549145989267
-0.12500000000006262      -12.297566561865386      2.9666114324788198
-7.499999999999999        -7.249999999999957       0.5853188942309323
-7.297566561865387        -7.374999999999958       0.5923841005190624
0.2499999999999405        -12.5                    2.9900311582536543
0.1249999999999396        -12.297566561865388      2.966563237387628
0.49999999999994316       -12.5                    2.9231267477269447
0.3749999999999419        -12.297566561865388      2.9230840205666637
-7.500000000000001        -6.999999999999956       0.5791538369282639
-7.297566561865387        -7.124999999999957       0.5888298287500248
0.7499999999999454        -12.5                    2.805219910812521
0.6249999999999443        -12.297566561865388      2.8319740440253156
-7.5                      -6.749999999999954       0.5678892359659096
-7.297566561865387        -6.8749999999999565      0.5804920925732623
0.9999999999999485        -12.5                    2.631975522866622
0.8749999999999468        -12.297566561865388      2.687963065034722
1.2499999999999503        -12.5                    2.4058336184359
1.1249999999999492        -12.297566561865388      2.489832413612593
-7.5                      -6.49999999999995        0.5506290464431426
-7.297566561865387        -6.624999999999953       0.5664091432855818
1.4999999999999534        -12.5                    2.139523367405575
1.374999999999952         -12.297566561865388      2.245113275180019
1.7499999999999556        -12.5                    1.8548914187167946
1.6249999999999547        -12.297566561865388      1.971339710523562
-7.5                      -6.249999999999947       0.5264457169905216
-7.297566561865386        -6.3749999999999485      0.545718627509313
1.9999999999999578        -12.5                    1.577034798508184
1.8749999999999563        -12.297566561865388      1.6923457839367921
2.2499999999999605        -12.5                    1.3270697343416875
2.1249999999999587        -12.297566561865388      1.4313935451787947
-7.5                      -5.999999999999943       0.4940593832670281
-7.297566561865386        -6.124999999999945       0.5174226898144006
2.4999999999999627        -12.5                    1.1175679281725488
2.3749999999999614        -12.297566561865388      1.2051243861156886
2.749999999999965         -12.5                    0.9522019329532515
2.624999999999964         -12.297566561865388      1.021233500723229
-7.5                      -5.7499999999999405      0.45128924595707537
-7.297566561865386        -5.874999999999942       0.4799687797494588
2.999999999999968         -12.5                    0.8282936830381417
2.8749999999999667        -12.297566561865388      0.8798064004534746
3.24999999999997          -12.5                    0.7400794107624905
3.1249999999999694        -12.297566561865388      0.7763696899746951
-7.5                      -5.499999999999939       0.3941073428896759
-7.297566561865386        -5.624999999999939       0.43054768524648784
3.499999999999973         -12.5                    0.6812828515724626
3.3749999999999716        -12.297566561865388      0.7048181918627353
3.749999999999975         -12.5                    0.6466471203825052
3.624999999999974         -12.297566561865388      0.6594045820097786
-7.5                      -5.249999999999936       0.3149935734304294
-7.297566561865387        -5.374999999999936       0.363851740136337
3.999999999999977         -12.5                    0.6322104780054126
3.874999999999976         -12.297566561865388      0.635736440604763
4.249999999999979         -12.5                    0.6255901261998441
4.124999999999978         -12.297566561865386      0.6274070883839996
-7.5                      -4.9999999999999325      0.21530397885136976
-7.297566561865386        -5.124999999999933       0.26994976719262564
4.4999999999999805        -12.5                    0.6217617392251945
4.37499999999998          -12.297566561865388      0.6226605245125411
4.749999999999982         -12.5                    0.6197969011056267
4.6249999999999805        -12.297566561865388      0.6201018911896199
-7.5                      -4.749999999999929       0.14842827616568027
-7.297566561865386        -4.87499999999993        0.1832839297826828
4.999999999999984         -12.5                    0.6190491107884701
4.875000237421131         -12.297566737232975      0.6189945255899834
5.249999999999984         -12.5                    0.6190472285267911
5.1250387716186845        -12.29758730529595       0.6187990096928431
-7.5                      -4.499999999999925       0.10869260301593957
-7.297566561865386        -4.624999999999927       0.13023781387175026
5.499999999999988         -12.500000000000002      0.6194571156455168
5.375140754039187         -12.297690472667737      0.6191283738029578
5.749999999999988         -12.5                    0.6200505964789663
5.625303940062854         -12.29795251387332       0.619713754399795
-7.5                      -4.249999999999923       0.08794551254474192
-7.297566561865386        -4.374999999999924       0.10040109258059453
5.99999999999999          -12.5                    0.6206803296690857
5.87549348520746          -12.298384645793568      0.6203772568021609
-7.5                      -3.999999999999921       0.08127755278930926
-7.297566561865386        -4.124999999999922       0.08701215394147849
6.249999999999991         -12.499999999999998      0.6212589926271465
6.125869195938994         -12.29876506245044       0.62101043801587
6.499999999999993         -12.5                    0.6217418362074069
6.375780386089769         -12.299738749169684      0.621552870893911
-7.5                      -3.7499999999999174      0.0866946462987573
-7.297566561865387        -3.8749999999999187      0.08665084654216891
6.749999999999995         -12.499999999999998      0.6221120951792675
6.626182432203677         -12.300205308903218      0.6219823185166024
6.9999999999999964        -12.5                    0.6223690965268929
6.875031779587783         -12.305878096783987      0.6222901584629065
-7.5                      -3.4999999999999147      0.10476190616638152
-7.297566561865386        -3.6249999999999165      0.09861866682580762
7.249999999999998         -12.5                    0.6225189965272675
7.122419833800932         -12.314273476995993      0.6224861063843298
7.5                       -12.5                    0.6225681004622836
7.3305490972724865        -12.337066163356116      0.6225684767647864
-7.5                      -3.249999999999911       0.13866338914890033
-7.297566561865386        -3.374999999999913       0.12477020339162226
7.5                       -12.250000000000274      0.6226196679901495
-7.5                      -2.9999999999999076      0.19467636301841598
-7.297566561865386        -3.1249999999999094      0.16978034189371824
7.5                       -12.00000000000027       0.6227654756039643
7.280325652561501         -12.121057339784308      0.6226482609932299
-7.5                      -2.749999999999906       0.2829342096400249
-7.297566561865387        -2.8749999999999063      0.24175926163661418
7.5                       -11.75000000000027       0.6229952726263415
7.296816727380562         -11.86049159324837       0.6228594743952716
-7.5                      -2.4999999999999023      0.4179968756490789
-7.297566561865387        -2.6249999999999036      0.353102033963074
7.5                       -11.500000000000266      0.6232873047273034
7.296306782353468         -11.619847917324217      0.6231257684873978
-7.5                      -2.2499999999998987      0.6165822514644129
-7.297566561865386        -2.3749999999999005      0.5196512921769766
7.5                       -11.250000000000263      0.6236019442149258
7.296193798816024         -11.373053116493208      0.6234485987315881
-7.5                      -1.999999999999897       0.8516787653240895
-7.297566561865387        -2.124999999999898       0.7355544727455041
7.5                       -11.00000000000026       0.6238722891924594
7.296682635509787         -11.123081789632861      0.6237787717979842
-7.5                      -1.7499999999998934      1.120949976897885
-7.297566561865386        -1.8749999999998952      0.9797937120298349
7.5                       -10.750000000000256      0.6239923680139029
7.297215456100137         -10.87373242639906       0.6240308701502285
-7.5                      -1.4999999999998899      1.4368293748278578
-7.297566561865386        -1.6249999999998916      1.2687969466993516
7.5                       -10.500000000000252      0.623803065022577
7.297469216309853         -10.624433076684706      0.624080872907137
-7.5                      -1.249999999999888       1.7913407756709148
-7.297566561865386        -1.374999999999889       1.6032434478645186
7.5                       -10.250000000000252      0.6230761503897472
7.297544821625707         -10.374831736824646      0.6237434762568458
-7.5                      -0.9999999999998845      2.1579689127524753
-7.297566561865387        -1.124999999999886       1.9655233664363372
7.5                       -10.000000000000249      0.6214973692988313
7.297566561865386         -10.125000000000252      0.6227547771559467
-7.5                      -0.749999999999881       2.4977327350257545
-7.297566561865386        -0.8749999999998832      2.3219679425419
7.5                       -9.750000000000245       0.6186502196188223
7.297566561865387         -9.875000000000247       0.6207553609360765
-7.5                      -0.4999999999998792      2.77053695358537
-7.297566561865387        -0.6249999999998802      2.6316547098671257
7.5                       -9.500000000000242       0.6140035034703215
7.297566561865387         -9.625000000000243       0.6172760546041469
-7.5                      -0.24999999999987566     2.945661510367749
-7.297566561865387        -0.3749999999998772      2.8580980423287383
7.5                       -9.250000000000238       0.6069032798783236
7.297566561865387         -9.37500000000024        0.6117251525900809
-7.5                      1.2789769243681803E-13   3.0057996044923407
-7.297566561865387        -0.12499999999987388     2.9769354241902164
7.5                       -9.000000000000234       0.59670791432463
7.297566561865387         -9.125000000000238       0.6034131545890613
-7.5                      0.25000000000013145      2.945662054656893
-7.297566561865387        0.1250000000001294       2.976935744421826
7.5                       -8.750000000000231       0.5866262223821956
7.297566561865387         -8.875000000000234       0.5922927570179723
-7.5                      0.5000000000001332       2.770537915258926
-7.297566561865387        0.37500000000013234      2.858098929892881
-7.5                      0.7500000000001368       2.4977338913451477
-7.297566561865387        0.6250000000001352       2.6316559624263083
7.5                       -8.500000000000231       0.5826646877001544
7.297566561865386         -8.625000000000231       0.5862384542830464
-7.5                      1.0000000000001403       2.157970010440039
-7.297566561865387        0.8750000000001384       2.3219692831771
-7.5                      1.250000000000142        1.7913416131393636
-7.297566561865386        1.1250000000001412       1.9655245298977768
7.5                       -8.250000000000227       0.582633906613079
7.297566561865387         -8.375000000000227       0.5851845168762185
-7.5                      1.5000000000001457       1.4368298600530605
-7.297566561865386        1.3750000000001439       1.60324426317849
7.5                       -8.000000000000224       0.5845735623587615
7.297566561865386         -8.125000000000226       0.5870846235782157
-7.5                      1.7500000000001492       1.1209501313745693
-7.297566561865386        1.6250000000001474       1.2687973720081331
-7.5                      2.000000000000151        0.8516786846559055
-7.297566561865386        1.87500000000015         0.9797938114373078
7.5                       -7.75000000000022        0.5867160555228399
7.297566561865386         -7.875000000000222       0.5900524490980631
-7.5                      2.2500000000001545       0.6165820550487836
-7.297566561865387        2.1250000000001528       0.7355543638680673
-7.5                      2.500000000000158        0.41799666524765006
-7.297566561865387        2.3750000000001563       0.5196510967946232
7.5                       -7.500000000000217       0.5874553455490902
7.297566561865386         -7.6250000000002185      0.5923574065592901
-7.5                      2.75000000000016         0.28293405501163876
-7.297566561865386        2.625000000000159        0.3531018460040858
-7.5                      3.0000000000001634       0.194676320216271
-7.297566561865387        2.8750000000001616       0.24175914902943144
7.5                       -7.250000000000214       0.5853589531793625
7.297566561865386         -7.375000000000216       0.5924254169303561
-7.5                      3.250000000000167        0.1386635215410206
-7.297566561865387        3.1250000000001648       0.16978036816963804
-7.5                      3.5000000000001705       0.10476230311815327
-7.297566561865387        3.3750000000001683       0.12477044845382572
7.5                       -7.000000000000212       0.5791934836013123
7.297566561865386         -7.125000000000213       0.5888720906625579
-7.5                      3.750000000000173        0.08669544213445673
-7.297566561865387        3.625000000000172        0.0986192466912102
-7.5                      4.000000000000175        0.08127894898455816
-7.297566561865386        3.875000000000174        0.08665193509150187
7.5                       -6.75000000000021        0.5679261740210967
7.297566561865387         -6.875000000000212       0.5805325813910714
-7.5                      4.2500000000001785       0.08794780490133175
-7.297566561865387        4.125000000000177        0.08701400923488872
-7.5                      4.500000000000181        0.10869621298871036
-7.297566561865387        4.37500000000018         0.10040408853639105
7.5                       -6.500000000000206       0.5506616568170501
7.297566561865387         -6.625000000000209       0.5664457941204132
-7.5                      4.750000000000185        0.14843378002012958
-7.297566561865387        4.625000000000184        0.1302424741371052
-7.5                      5.000000000000188        0.2153121175029563
-7.297566561865387        4.875000000000187        0.18329095226367434
7.5                       -6.2500000000002025      0.5264730973104965
7.297566561865386         -6.375000000000206       0.5457501243394288
-7.5                      5.250000000000192        0.3150052092570629
-7.297566561865387        5.125000000000191        0.2699600123137041
7.5                       -6.000000000000199       0.49408129090698766
7.297566561865386         -6.125000000000202       0.517448455818748
-7.5                      5.500000000000193        0.39412333969753327
-7.297566561865387        5.375000000000196        0.36386614137244117
-7.5                      5.750000000000195        0.45131032468203053
-7.297566561865387        5.625000000000213        0.43056710408225746
7.5                       -5.750000000000195       0.45130596465377654
7.297566561865387         -5.875000000000198       0.47998887210619817
-7.5                      6.000000000000199        0.49408595135683014
-7.297566561865383        5.8750000000002744       0.4799938422539878
-7.5                      6.2500000000002025       0.5264776861223638
-7.297566561865373        6.12500000000052         0.5174535949436038
-7.5                      6.500000000000206        0.5506656780448173
-7.297566561865314        6.375000000001497        0.5457549638449523
7.5                       -5.500000000000193       0.39411950770698945
7.297566561865387         -5.6250000000001945      0.4305626253842167
-7.5                      6.75000000000021         0.5679290506653777
-7.297566561865044        6.625000000005321        0.5664497554375512
7.5                       -5.250000000000192       0.31500199265072354
7.297566561865387         -5.375000000000192       0.3638623208306642
-7.5                      7.000000000000212        0.5791946135835195
-7.29756656186382         6.875000000020015        0.58053503206881
-7.5                      7.250000000000214        0.5853577651317795
-7.297566561858479        7.12500000007515         0.5888724074755719
7.5                       -5.000000000000188       0.21530948619274645
7.297566561865386         -5.12500000000019        0.26995687608290225
-7.5                      7.500000000000217        0.5874513410951587
-7.297566561836021        7.375000000276561        0.5924230405058227
-7.5                      7.75000000000022         0.586708829476804
-7.297566561745046        7.62500000099089         0.5923518747840203
7.5                       -4.750000000000185       0.14843161105139316
7.297566561865386         -4.8750000000001865      0.18328841405923804
-7.5                      8.000000000000224        0.5845628003457184
-7.297566561390414        7.875000003443098        0.590043404202084
-7.5                      8.250000000000227        0.5826193679724646
-7.297566560062822        8.12500001156533         0.5870717976330067
7.5                       -4.500000000000181       0.1086943042325645
7.297566561865386         -4.625000000000183       0.13024035934326927
-7.5                      8.500000000000231        0.5826461869764147
-7.297566555300502        8.375000037439227        0.5851677088027892
-7.5                      8.750000000000231        0.5866036236373028
-7.297566538969229        8.625000116486815        0.5862175155613994
7.5                       -4.2500000000001785      0.08794586790214798
7.297566561865386         -4.37500000000018        0.10040214352882619
-7.5                      9.000000000000234        0.596681159434142
-7.2975664855457785       8.875000347700917        0.5922676100536127
-7.5                      9.250000000000238        0.6068734632831926
-7.2975663191367355       9.125000995717803        0.6033841254054811
7.5                       -4.000000000000175       0.08127656611661
7.297566561865386         -4.125000000000177       0.08701188023885204
-7.5                      9.500000000000242        0.6139724277931595
-7.297565826453351        9.375002745899819        0.6116939331354255
7.5                       -3.750000000000173       0.08669197358912513
7.297566561865386         -3.875000000000174       0.08664910362723478
-7.5                      9.750000000000245        0.6186197515770169
-7.297564445934001        9.625007366912554        0.6172445921103549
-7.5                      10.000000000000249       0.6214692390508461
-7.297560845577814        9.875019628358361        0.6207255666374286
-7.5                      10.250000000000252       0.6230517958340406
-7.29755275641692         10.12505376553656        0.6227283179314359
7.5                       -3.5000000000001705      0.10475672177279154
7.297566561865387         -3.625000000000172       0.0986149053322438
-7.5                      10.500000000000252       0.6237835482886951
-7.29754470077156         10.375158554811502       0.6237219557157979
-7.5                      10.750000000000256       0.6239783687367639
-7.297237570905973        10.625280909610913       0.6240645650681184
7.5                       -3.250000000000167       0.13865414291712902
7.297566561865387         -3.3750000000001683      0.12476329058904452
-7.5                      11.00000000000026        0.6238641544226684
-7.2966371414771585       10.875912751842193       0.62401859100668
7.5                       -3.0000000000001634      0.19466039099362634
7.297566561865387         -3.1250000000001648      0.169768256807403
-7.5                      11.250000000000263       0.6235997752121006
-7.295157557425831        11.127927074417856       0.6237681369960676
-7.5                      11.500000000000266       0.6232910697932877
-7.294713616206049        11.383188153296214       0.6234358902837571
7.5                       -2.75000000000016        0.2829071923649643
7.297566561865387         -2.8750000000001616      0.24173863848424001
-7.5                      11.75000000000027        0.6230048221060902
-7.294986985216372        11.6282895955173         0.6231220707691828
-7.5                      12.00000000000027        0.6227806285577077
-7.298401164683329        11.865385604953795       0.6228673318810073
7.5                       -2.500000000000158       0.417952258653991
7.297566561865387         -2.625000000000159       0.3530675955309918
-7.5                      12.250000000000274       0.6226403541443584
-7.275397475493655        12.122115101058567       0.6226638922709976
-7.5                      12.5                     0.6225943301644811
-7.328022341935029        12.339061833572377       0.6225899133979883
7.5                       -2.2500000000001545      0.6165110410127448
7.297566561865387         -2.3750000000001563      0.5195954138341198
-7.249999999999998        12.5                     0.6225451555408228
7.5                       -2.000000000000151       0.851570476934747
7.297566561865387         -2.125000000000153       0.7354674889821391
-6.9999999999999964       12.5                     0.6223950557378094
-7.114714234181489        12.323194066803039       0.6225009499117764
7.5                       -1.7500000000001492      1.1207948873108302
7.297566561865386         -1.87500000000015        0.9796654577413083
-6.749999999999995        12.499999999999998       0.6221377601040032
-6.877989465427923        12.305337452555392       0.6223152021460648
7.5                       -1.5000000000001457      1.436622243402826
7.297566561865386         -1.6250000000001474      1.2686196422757299
-6.499999999999993        12.5                     0.6217671762301544
-6.630349326992596        12.29943190649118        0.6220105356779815
7.5                       -1.250000000000142       1.7910853367940909
7.297566561865386         -1.3750000000001439      1.6030159759824334
-6.249999999999991        12.499999999999998       0.6212840918397163
-6.3798465501165795       12.298398915302291       0.6215832720111423
7.5                       -1.0000000000001403      2.157680331081772
7.297566561865386         -1.1250000000001412      1.965255080852847
-5.99999999999999         12.5                     0.6207054346284254
-6.12874173189573         12.29854644695986        0.6210398652952871
7.5                       -0.7500000000001368      2.4974353653306607