% Model:              U3_backwards_compatible_half_ring.mph
% Version:            COMSOL 5.6.0.280
% Date:               Aug 23 2022, 10:31
% Dimension:          2
% Nodes:              7634
% Expressions:        1
% Description:        Dependent variable u
% Length unit:        m
% x                       y                        u (1) @ t=1000
-7.5                      -12.5                    1.4010050628176636
-7.250000000000133        -12.5                    1.401585836928511
-7.337467140714745        -12.329651574551194      1.3790927761604543
-7.499999999999999        -12.249999999999996      1.3683851808162275
-7.00000000000013         -12.5                    1.4033520898653293
-7.121656495314211        -12.277385675229983      1.373137786961585
-7.5                      -11.999999999999996      1.3349730218026974
-7.315679208259377        -12.12087219752599       1.3514414946866535
-6.750000000000128        -12.5                    1.4063756252299946
-6.861097408457507        -12.298460102229008      1.378125689803734
-7.5                      -11.749999999999993      1.3010145571568816
-7.305678822689975        -11.878019377584284      1.3186362301498311
-6.500000000000124        -12.5                    1.4107908970037248
-6.618706031168089        -12.297578238319844      1.3811653143873324
-7.500000000000001        -11.499999999999993      1.2667839632091498
-7.300979653050844        -11.62754977113695       1.2843667532075063
-6.250000000000123        -12.5                    1.4168173692583805
-6.3730080229996915       -12.296731258729514      1.3855019319557924
-7.5                      -11.24999999999999       1.2325685092266538
-7.299892167059557        -11.376802265715625      1.2499161494213922
-6.000000000000121        -12.5                    1.4248056137719338
-6.123449325378588        -12.296850069422781      1.3915799908389468
-7.5                      -10.99999999999999       1.198652370796704
-7.299236716008845        -11.126397090925856      1.2156714584780897
-5.750000000000117        -12.5                    1.4353131569161548
-5.873812060373251        -12.297197084502967      1.3996341734903106
-7.5                      -10.749999999999986      1.1653016945421957
-7.298782900599218        -10.876065443257303      1.1818791087750016
-5.5000000000001155       -12.5                    1.449225248937213
-5.624432920877559        -12.297449799498764      1.4102021268993505
-7.499999999999999        -10.499999999999986      1.1327526824682703
-7.29829725322039         -10.625679442536171      1.1487788507327525
-5.250000000000114        -12.5                    1.4679387467045242
-5.374778896194034        -12.297539107962342      1.4242001689877437
-7.5                      -10.249999999999984      1.101203606501419
-7.297926680657121        -10.375393351214836      1.1166122385151274
-5.00000000000011         -12.5                    1.493634454820028
-5.125000000000111        -12.297566561865388      1.4429994631673972
-7.5                      -9.999999999999982       1.0708109433162056
-7.297710866790436        -10.125187325060487      1.0855550175927504
-4.750000000000108        -12.5                    1.5296765216171035
-4.8750000000001075       -12.297566561865388      1.468620086629598
-7.500000000000001        -9.74999999999998        1.0416891688182142
-7.297604477248478        -9.875068211773142       1.0557421841199213
-4.500000000000105        -12.5                    1.5812041809679689
-4.625000000000106        -12.297566561865386      1.5039308768966615
-4.250000000000103        -12.5                    1.6560294952923906
-4.375000000000106        -12.297566561865388      1.5529812506488696
-7.5                      -9.499999999999979       1.0139133876711617
-7.297571022746962        -9.625016759688604       1.0272634757746806
-4.000000000000101        -12.5                    1.7660448909702502
-4.125000000000103        -12.297566561865388      1.6213134575081882
-3.7500000000000977       -12.5                    1.929532503631112
-3.8750000000001          -12.297566561865386      1.7162143524731361
-7.5                      -9.249999999999975       0.9875238410006845
-7.29756685930099         -9.37500131685328        1.0001696841033263
-3.500000000000096        -12.5                    2.175936966561821
-3.6250000000000973       -12.297566561865388      1.8465918031669422
-7.5                      -8.999999999999975       0.9625313907052545
-7.297566561865387        -9.124999999999973       0.9744808681901852
-3.2500000000000937       -12.5                    2.5329696578305385
-3.3750000000000946       -12.297566561865388      2.018562391546443
-3.0000000000000906       -12.5                    2.404397059267008
-3.125000000000092        -12.297566561865388      2.0880579622670172
-7.5                      -8.749999999999972       0.9389232435116516
-7.297566561865387        -8.874999999999973       0.9501920164030205
-2.750000000000089        -12.5                    1.7966149155119855
-2.87500000000009         -12.297566561865388      1.7285885996216537
-2.5000000000000857       -12.5                    1.1860716496184132
-2.6250000000000875       -12.297566561865388      1.227995790322525
-7.5                      -8.499999999999968       0.9166683829495587
-7.297566561865387        -8.624999999999972       0.927278727693034
-2.2500000000000835       -12.5                    0.8298474896659046
-2.375000000000085        -12.297566561865388      0.8645728732497867
-2.0000000000000813       -12.5                    0.7149632080115244
-2.125000000000082        -12.297566561865388      0.7006418571461844
-7.5                      -8.249999999999964       0.8957223769851689
-7.297566561865386        -8.374999999999968       0.9057012613234036
-1.7500000000000786       -12.5                    0.6943562850365504
-1.8750000000000797       -12.297566561865388      0.679913647321153
-1.5000000000000764       -12.5                    0.6822046145777391
-1.6250000000000773       -12.297566561865388      0.6739984470847579
-7.5                      -7.9999999999999645      0.8760313955964971
-7.297566561865387        -8.124999999999964       0.8854088516617141
-1.2500000000000742       -12.5                    0.674901528754233
-1.3750000000000753       -12.297566561865388      0.6703188098718903
-1.000000000000071        -12.5                    0.6704570552561929
-1.1250000000000724       -12.297566561865386      0.6678967141334607
-7.5                      -7.749999999999961       0.8575353970970873
-7.297566561865386        -7.874999999999962       0.8663433056937339
-0.7500000000000693       -12.5                    0.6677542972413294
-0.8750000000000702       -12.297566561865388      0.6663308526331119
-0.5000000000000662       -12.5                    0.6661628430172142
-0.6250000000000677       -12.297566561865388      0.6653498364766436
-7.5                      -7.49999999999996        0.8401705267744896
-7.297566561865387        -7.62499999999996        0.848441760802381
-0.25000000000006395      -12.5                    0.6653286364175007
-0.3750000000000651       -12.297566561865388      0.6647803375052245
-6.128431095930864E-14    -12.5                    0.665071058986866
-0.12500000000006262      -12.297566561865386      0.6645206124447869
-7.499999999999999        -7.249999999999957       0.8238708248653022
-7.297566561865387        -7.374999999999958       0.831638684997313
0.2499999999999405        -12.5                    0.6653345393945563
0.1249999999999396        -12.297566561865388      0.66452359426193
0.49999999999994316       -12.5                    0.6661743126803827
0.3749999999999419        -12.297566561865388      0.6647889580351415
-7.500000000000001        -6.999999999999956       0.8085693732333553
-7.297566561865387        -7.124999999999957       0.8158672400309532
0.7499999999999454        -12.5                    0.6677707790464034
0.6249999999999443        -12.297566561865388      0.6653631512698448
-7.5                      -6.749999999999954       0.7941990307189807
-7.297566561865387        -6.8749999999999565      0.8010601504774862
0.9999999999999485        -12.5                    0.6704780239466425
0.8749999999999468        -12.297566561865388      0.6663473807639194
1.2499999999999503        -12.5                    0.6749268870316208
1.1249999999999492        -12.297566561865388      0.6679145410833701
-7.5                      -6.49999999999995        0.7806929230456424
-7.297566561865387        -6.624999999999953       0.787150237553235
1.4999999999999534        -12.5                    0.6822352639985602
1.374999999999952         -12.297566561865388      0.6703356124506338
1.7499999999999556        -12.5                    0.694394821402919
1.6249999999999547        -12.297566561865388      0.6740111501626379
-7.5                      -6.249999999999947       0.7679848683471945
-7.297566561865386        -6.3749999999999485      0.7740707909989979
1.9999999999999578        -12.5                    0.7150143040740794
1.8749999999999563        -12.297566561865388      0.6799168350830332
2.2499999999999605        -12.5                    0.8299272104452844
2.1249999999999587        -12.297566561865388      0.7006222810237254
-7.5                      -5.999999999999943       0.756009934076317
-7.297566561865386        -6.124999999999945       0.7617559680630529
2.4999999999999627        -12.5                    1.186181717393396
2.3749999999999614        -12.297566561865388      0.8644863210220118
2.749999999999965         -12.5                    1.7966313869470334
2.624999999999964         -12.297566561865388      1.227697946987206
-7.5                      -5.7499999999999405      0.7447053313630314
-7.297566561865386        -5.874999999999942       0.7501414239049535
2.999999999999968         -12.5                    2.404050048771051
2.8749999999999667        -12.297566561865388      1.7278359775031455
3.24999999999997          -12.5                    2.5321948965789036
3.1249999999999694        -12.297566561865388      2.0868093094955866
-7.5                      -5.499999999999939       0.7340118504200341
-7.297566561865386        -5.624999999999939       0.739165386502723
3.499999999999973         -12.5                    2.1750467302192877
3.3749999999999716        -12.297566561865388      2.0173594808348025
3.749999999999975         -12.5                    1.9285256003989162
3.624999999999974         -12.297566561865388      1.8454905073156909
-7.5                      -5.249999999999936       0.7238760127550815
-7.297566561865387        -5.374999999999936       0.7287703805642377
3.999999999999977         -12.5                    1.7649279883488826
3.874999999999976         -12.297566561865388      1.715105446835145
4.249999999999979         -12.5                    1.6548124422396588
4.124999999999978         -12.297566561865386      1.620156190218691
-7.5                      -4.9999999999999325      0.7142530475530764
-7.297566561865386        -5.124999999999933       0.7189057640229727
4.4999999999999805        -12.5                    1.5798962274819546
4.37499999999998          -12.297566561865388      1.5517619114726189
4.749999999999982         -12.5                    1.5282868458541214
4.6249999999999805        -12.297566561865388      1.5026468854391977
-7.5                      -4.749999999999929       0.7051106764404814
-7.297566561865386        -4.87499999999993        0.70953115055892
4.999999999999984         -12.5                    1.492172965610577
4.875000237421131         -12.297566737232975      1.4672742831722978
5.249999999999984         -12.5                    1.4664162801621095
5.1250387716186845        -12.29758730529595       1.4415983571530073
-7.5                      -4.499999999999925       0.6964335057661928
-7.297566561865386        -4.624999999999927       0.7006206382773706
5.499999999999988         -12.500000000000002      1.44765320130388
5.375140754039187         -12.297690472667737      1.4227531500733273
5.749999999999988         -12.5                    1.433702896407018
5.625303940062854         -12.29795251387332       1.408751431368654
-7.5                      -4.249999999999923       0.6882275860413527
-7.297566561865386        -4.374999999999924       0.6921675446903106
5.99999999999999          -12.5                    1.423167700890114
5.87549348520746          -12.298384645793568      1.3982326409851327
-7.5                      -3.999999999999921       0.6805244333924988
-7.297566561865386        -4.124999999999922       0.6841890772421427
6.249999999999991         -12.499999999999998      1.415160929204854
6.125869195938994         -12.29876506245044       1.3902475454725733
6.499999999999993         -12.5                    1.4091232859960459
6.375780386089769         -12.299738749169684      1.3843063329257435
-7.5                      -3.7499999999999174      0.6733835705822715
-7.297566561865387        -3.8749999999999187      0.6767300884797011
6.749999999999995         -12.499999999999998      1.4047021968992572
6.626182432203677         -12.300205308903218      1.3798388774591277
6.9999999999999964        -12.5                    1.401675920479561
6.875031779587783         -12.305878096783987      1.377393552991647
-7.5                      -3.4999999999999147      0.66689250474962
-7.297566561865386        -3.6249999999999165      0.6698648423782602
7.249999999999998         -12.5                    1.3999088726368392
7.122419833800932         -12.314273476995993      1.3764365712929052
7.5                       -12.5                    1.3993277870378251
7.3305490972724865        -12.337066163356116      1.3784855117687769
-7.5                      -3.249999999999911       0.6611630840004515
-7.297566561865386        -3.374999999999913       0.6636956324524333
7.5                       -12.250000000000274      1.366826451983109
-7.5                      -2.9999999999999076      0.6563234097402143
-7.297566561865386        -3.1249999999999094      0.6583472102420592
7.5                       -12.00000000000027       1.3335328270289633
7.280325652561501         -12.121057339784308      1.3500663111341547
-7.5                      -2.749999999999906       0.6525049300108813
-7.297566561865387        -2.8749999999999063      0.6539563327803671
7.5                       -11.75000000000027       1.2996905450713052
7.296816727380562         -11.86049159324837       1.3148901083525628
-7.5                      -2.4999999999999023      0.6498249692788314
-7.297566561865387        -2.6249999999999036      0.6506562970424584
7.5                       -11.500000000000266      1.2655742921755275
7.296306782353468         -11.619847917324217      1.282050486239126
-7.5                      -2.2499999999998987      0.6483657257957461
-7.297566561865386        -2.3749999999999005      0.6485570446786734
7.5                       -11.250000000000263      1.231470973441253
7.296193798816024         -11.373053116493208      1.2482504143049147
-7.5                      -1.999999999999897       0.6481516843765195
-7.297566561865387        -2.124999999999898       0.6477222580422176
7.5                       -11.00000000000026       1.197664668346778
7.296682635509787         -11.123081789632861      1.2141778591761894
-7.5                      -1.7499999999998934      0.6491284697110119
-7.297566561865386        -1.8749999999998952      0.6481458571371522
7.5                       -10.750000000000256      1.16442158959767
7.297215456100137         -10.87373242639906       1.1806323510045365
-7.5                      -1.4999999999998899      0.6511473458152944
-7.297566561865386        -1.6249999999998916      0.6497314982702905
7.5                       -10.500000000000252      1.1319780893920621
7.297469216309853         -10.624433076684706      1.1477881856031404
-7.5                      -1.249999999999888       0.6539605390680657
-7.297566561865386        -1.374999999999889       0.6522799736733504
7.5                       -10.250000000000252      1.1005326640596675
7.297544821625707         -10.374831736824646      1.1158182311414964
-7.5                      -0.9999999999998845      0.6572326345257112
-7.297566561865387        -1.124999999999886       0.6554903370186552
7.5                       -10.000000000000249      1.0702421069339707
7.297566561865386         -10.125000000000252      1.0849124051380634
-7.5                      -0.749999999999881       0.6605715343113313
-7.297566561865386        -0.8749999999998832      0.6589801733973123
7.5                       -9.750000000000245       1.0412213340633447
7.297566561865387         -9.875000000000247       1.055216031486738
-7.5                      -0.4999999999998792      0.6635782337753325
-7.297566561865387        -0.6249999999998802      0.6623275678797641
7.5                       -9.500000000000242       1.0135460465923296
7.297566561865387         -9.625000000000243       1.0268439213342087
-7.5                      -0.24999999999987566     0.665908418961485
-7.297566561865387        -0.3749999999998772      0.6651315332071449
7.5                       -9.250000000000238       0.9872572781965828
7.297566561865387         -9.37500000000024        0.9998520495065143
-7.5                      1.2789769243681803E-13   0.6673326657346405
-7.297566561865387        -0.12499999999987388     0.6670801174752453
7.5                       -9.000000000000234       0.9623669207324039
7.297566561865387         -9.125000000000238       0.9742642345957316
-7.5                      0.25000000000013145      0.6677789757416436
-7.297566561865387        0.1250000000001294       0.6680092435046482
7.5                       -8.750000000000231       0.9388634896928055
7.297566561865387         -8.875000000000234       0.9500780744757985
-7.5                      0.5000000000001332       0.6673441264991804
-7.297566561865387        0.37500000000013234      0.6679343731457982
-7.5                      0.7500000000001368       0.666268917263356
-7.297566561865387        0.6250000000001352       0.6670435167961849
7.5                       -8.500000000000231       0.9167175933296269
7.297566561865386         -8.625000000000231       0.9272707590562469
-7.5                      1.0000000000001403       0.6648836006422186
-7.297566561865387        0.8750000000001384       0.6656521947952482
-7.5                      1.250000000000142        0.6635386573475773
-7.297566561865386        1.1250000000001412       0.6641332526999886
7.5                       -8.250000000000227       0.8958867673971339
7.297566561865387         -8.375000000000227       0.9058043337435199
-7.5                      1.5000000000001457       0.6625390424797294
-7.297566561865386        1.3750000000001439       0.6628412975071202
7.5                       -8.000000000000224       0.8763195017403677
7.297566561865386         -8.125000000000226       0.885630176629662
-7.5                      1.7500000000001492       0.6620967428063075
-7.297566561865386        1.6250000000001474       0.66205076144829
-7.5                      2.000000000000151        0.6623092211660448
-7.297566561865386        1.87500000000015         0.6619198759553586
7.5                       -7.75000000000022        0.8579584065505824
7.297566561865386         -7.875000000000222       0.8666925961483624
-7.5                      2.2500000000001545       0.6631633065133296
-7.297566561865387        2.1250000000001528       0.6624837422529959
-7.5                      2.500000000000158        0.664557979171613
-7.297566561865387        2.3750000000001563       0.6636716677775967
7.5                       -7.500000000000217       0.8407425475819205
7.297566561865386         -7.6250000000002185      0.8489315543612189
-7.5                      2.75000000000016         0.6663366922559211
-7.297566561865386        2.625000000000159        0.6653391702681076
-7.5                      3.0000000000001634       0.6683203832225084
-7.297566561865387        2.8750000000001616       0.6673041909883696
7.5                       -7.250000000000214       0.8246090297379399
7.297566561865386         -7.375000000000216       0.8322845820369428
-7.5                      3.250000000000167        0.6703350891599292
-7.297566561865387        3.1250000000001648       0.6693793754827723
-7.5                      3.5000000000001705       0.67223153154096
-7.297566561865387        3.3750000000001683       0.671396104882014
7.5                       -7.000000000000212       0.809493938037455
7.297566561865386         -7.125000000000213       0.8166879865351947
-7.5                      3.750000000000173        0.6738968997403889
-7.297566561865387        3.625000000000172        0.673219556070089
-7.5                      4.000000000000175        0.6752607775194259
-7.297566561865386        3.875000000000174        0.6747564306542263
7.5                       -6.75000000000021        0.7953327644653904
7.297566561865387         -6.875000000000212       0.8020774736473729
-7.5                      4.2500000000001785       0.6762978301639246
-7.297566561865387        4.125000000000177        0.6759580219864945
-7.5                      4.500000000000181        0.6770299427386931
-7.297566561865387        4.37500000000018         0.6768214312350497
7.5                       -6.500000000000206       0.7820604672151322
7.297566561865387         -6.625000000000209       0.7883883199122161
-7.5                      4.750000000000185        0.6775304516719997
-7.297566561865387        4.625000000000184        0.6773915531939706
-7.5                      5.000000000000188        0.6779333521394229
-7.297566561865387        4.875000000000187        0.6777663793987659
7.5                       -6.2500000000002025      0.7696113313617386
7.297566561865386         -6.375000000000206       0.7755552501202575
-7.5                      5.250000000000192        0.6784512933380836
-7.297566561865387        5.125000000000191        0.678108555868666
7.5                       -6.000000000000199       0.7579188298125793
7.297566561865386         -6.125000000000202       0.7635122004832561
-7.5                      5.500000000000193        0.6794083836754687
-7.297566561865387        5.375000000000196        0.6786673608794801
-7.5                      5.750000000000195        0.6812985046825469
-7.297566561865387        5.625000000000213        0.6798179758128212
7.5                       -5.750000000000195       0.7469157189725449
7.297566561865387         -5.875000000000198       0.7521921824044792
-7.5                      6.000000000000199        0.6848896947724782
-7.297566561865383        5.8750000000002744       0.6821304598027952
-7.5                      6.2500000000002025       0.6914169854861362
-7.297566561865373        6.12500000000052         0.6864922707812068
-7.5                      6.500000000000206        0.7029581544643048
-7.297566561865314        6.375000000001497        0.6943328377767505
7.5                       -5.500000000000193       0.7365346379686879
7.297566561865387         -5.6250000000001945      0.7415275013281136
-7.5                      6.75000000000021         0.7232196327302426
-7.297566561865044        6.625000000005321        0.7080578643230612
7.5                       -5.250000000000192       0.7267094998543083
7.297566561865387         -5.375000000000192       0.731450619934405
-7.5                      7.000000000000212        0.7602563297576249
-7.29756656186382         6.875000000020015        0.7318763042302784
-7.5                      7.250000000000214        0.8795987640714878
-7.297566561858479        7.12500000007515         0.7787125292303422
7.5                       -5.000000000000188       0.7173779472713941
7.297566561865386         -5.12500000000019        0.7218959676478741
-7.5                      7.500000000000217        1.266324953008812
-7.297566561836021        7.375000000276561        1.0016850696316089
-7.5                      7.75000000000022         1.941137320773182
-7.297566561745046        7.62500000099089         1.5040914728882393
7.5                       -4.750000000000185       0.7084850677125076
7.297566561865386         -4.8750000000001865      0.7128029642463124
-7.5                      8.000000000000224        2.6227492982768807
-7.297566561390414        7.875000003443098        2.194321434227573
-7.5                      8.250000000000227        2.8012182069598865
-7.297566560062822        8.12500001156533         2.667135622288327
7.5                       -4.500000000000181       0.6999883992849748
7.297566561865386         -4.625000000000183       0.7041204150628407
-7.5                      8.500000000000231        2.3762737928029574
-7.297566555300502        8.375000037439227        2.510188523720989
-7.5                      8.750000000000231        2.08456312419497
-7.297566538969229        8.625000116486815        2.1615198821054373
7.5                       -4.2500000000001785      0.6918639918814901
7.297566561865386         -4.37500000000018        0.6958122229412423
-7.5                      9.000000000000234        1.9116315090737652
-7.2975664855457785       8.875000347700917        1.9583522165917626
-7.5                      9.250000000000238        1.8075462797665913
-7.2975663191367355       9.125000995717803        1.8368799142077812
7.5                       -4.000000000000175       0.6841129306390906
7.297566561865386         -4.125000000000177       0.6878640383306626
-7.5                      9.500000000000242        1.7426699214430093
-7.297565826453351        9.375002745899819        1.7622608409014884
7.5                       -3.750000000000173       0.6767673260920118
7.297566561865386         -3.875000000000174       0.680290057301194
-7.5                      9.750000000000245        1.699687954125989
-7.297564445934001        9.625007366912554        1.714180228762021
-7.5                      10.000000000000249       1.6683376706702664
-7.297560845577814        9.875019628358361        1.6804790993296896
-7.5                      10.250000000000252       1.6425894238311
-7.29755275641692         10.12505376553656        1.6539369568074556
7.5                       -3.5000000000001705      0.6698944183436971
7.297566561865387         -3.625000000000172       0.6731387476714031
-7.5                      10.500000000000252       1.6189995432446833
-7.29754470077156         10.375158554811502       1.630379706667746
-7.5                      10.750000000000256       1.5956883772205497
-7.297237570905973        10.625280909610913       1.607510063592364
7.5                       -3.250000000000167       0.6635972496177083
7.297566561865387         -3.3750000000001683      0.666495951234981
-7.5                      11.00000000000026        1.5716920036350748
-7.2966371414771585       10.875912751842193       1.5840881260299702
7.5                       -3.0000000000001634      0.658010443369224
7.297566561865387         -3.1250000000001648      0.6604837114009592
-7.5                      11.250000000000263       1.546556846669408
-7.295157557425831        11.127927074417856       1.5594517237177976
-7.5                      11.500000000000266       1.5200978736926214
-7.294713616206049        11.383188153296214       1.5331308762183122
7.5                       -2.75000000000016        0.6532900488755163
7.297566561865387         -2.8750000000001616      0.6552534181640018
-7.5                      11.75000000000027        1.4922660358167417
-7.294986985216372        11.6282895955173         1.5064895035633976
-7.5                      12.00000000000027        1.4630846049785384
-7.298401164683329        11.865385604953795       1.479435667164932
7.5                       -2.500000000000158       0.6495971436288125
7.297566561865387         -2.625000000000159       0.6509724711426078
-7.5                      12.250000000000274       1.4326258113784955
-7.275397475493655        12.122115101058567       1.4489139483007212
-7.5                      12.5                     1.401005062817634
-7.328022341935029        12.339061833572377       1.4217854995529162
7.5                       -2.2500000000001545      0.6470758367217458
7.297566561865387         -2.3750000000001563      0.6478045572926437
-7.249999999999998        12.5                     1.4015858369285106
7.5                       -2.000000000000151       0.6458273831689005
7.297566561865387         -2.125000000000153       0.6458846857396142
-6.9999999999999964       12.5                     1.40335208986533
-7.114714234181489        12.323194066803039       1.4250014520970746
7.5                       -1.7500000000001492      0.6458832634474757
7.297566561865386         -1.87500000000015        0.6452912247695384
-6.749999999999995        12.499999999999998       1.4063756252299953
-6.877989465427923        12.305337452555392       1.4297589368439996
7.5                       -1.5000000000001457      0.6471813164942589
7.297566561865386         -1.6250000000001474      0.6460183683480359
-6.499999999999993        12.5                     1.4107908970037248
-6.630349326992596        12.29943190649118        1.4345174375296095
7.5                       -1.250000000000142       0.649550244309715
7.297566561865386         -1.3750000000001439      0.647953785831454
-6.249999999999991        12.499999999999998       1.4168173692583805
-6.3798465501165795       12.298398915302291       1.4403074584235211