% Model:              u4.mph
% Version:            COMSOL 5.4.0.225
% Date:               Feb 1 2019, 13:13
% Dimension:          2
% Nodes:              7634
% Expressions:        1
% Description:        Dependent variable u
% Length unit:        m
% x                       y                        u (1) @ t=500
-7.5                      -12.5                    0.6717389011645309
-7.250000000000037        -12.5                    0.6719246858404335
-7.3374671407145495       -12.329651574550818      0.6707665479262176
-7.5                      -12.25                   0.6701280842502616
-7.000000000000037        -12.5                    0.6724870130228041
-7.121656495313863        -12.277385675228883      0.6707666393721546
-7.5                      -12                      0.6681032439164644
-7.315679208258853        -12.120872197525207      0.6692393851228277
-6.7500000000000355       -12.5                    0.6734405948941956
-6.861097408456697        -12.29846010222184       0.671745098842727
-7.499999999999999        -11.75                   0.665665821189345
-7.305678822690329        -11.878019377582177      0.6670793671301668
-6.5000000000000355       -12.5                    0.6748093486554487
-6.618706031167112        -12.297578238322714      0.6729276253599049
-7.499999999999999        -11.5                    0.6628345139213541
-7.300979653050327        -11.627549771137687      0.6644380192848929
-6.250000000000034        -12.5                    0.6766252675084852
-6.373008022997354        -12.296731258736017      0.6745720972567836
-7.5                      -11.25                   0.6596484610788957
-7.299892167058572        -11.376802265717481      0.6614027605961432
-6.000000000000034        -12.5                    0.6789263087818732
-6.123449325377528        -12.296850069424762      0.6767564830933842
-7.500000000000001        -11                      0.6561693600744479
-7.299236716007024        -11.126397090926773      0.6580348492205302
-5.750000000000032        -12.5                    0.6817528453307823
-5.873812060372788        -12.297197084503546      0.6795134750121692
-7.5                      -10.75                   0.6524819859608988
-7.298782900589671        -10.876065443261353      0.6544053795288597
-5.500000000000032        -12.5                    0.6851419868005776
-5.624432920877358        -12.297449799498926      0.6829014731480466
-7.5                      -10.5                    0.6486924968837897
-7.298297253205412        -10.625679442540251      0.6506097261469695
-5.250000000000032        -12.5                    0.6891188796852111
-5.37477889619392         -12.29753910796238       0.6869915635821767
-7.5                      -10.25                   0.6449240973575041
-7.297926680647983        -10.375393351215616      0.6467678494627639
-5.00000000000003         -12.5                    0.6936839966081458
-5.125000000000029        -12.297566561865388      0.6918357570984149
-7.5                      -10                      0.6413099238365133
-7.297710866788179        -10.12518732506054       0.6430119852642829
-4.75000000000003         -12.5                    0.6987955681528707
-4.875000000000029        -12.297566561865388      0.6974613189165549
-7.5                      -9.75                    0.6379834808198244
-7.297604477248478        -9.875068211773158       0.6394806801497719
-4.500000000000028        -12.5                    0.7043466180573508
-4.625000000000028        -12.297566561865388      0.7038350702688901
-4.250000000000028        -12.5                    0.7101371076066263
-4.375000000000028        -12.297566561865388      0.7108421657431981
-7.499999999999999        -9.5                     0.6350675190987604
-7.297571022746962        -9.625016759688622       0.6363070542039561
-4.000000000000027        -12.5                    0.7158423596593139
-4.1250000000000275       -12.297566561865388      0.7182424319606748
-3.7500000000000266       -12.5                    0.7209785620981264
-3.875000000000027        -12.297566561865388      0.7256240616596744
-7.5                      -9.250000000000002       0.6326628427608488
-7.29756685930099         -9.375001316853307       0.6336071952053376
-3.500000000000026        -12.5                    0.72487098132045
-3.6250000000000266       -12.297566561865388      0.7323406413381014
-7.500000000000001        -9.000000000000002       0.6308389242129329
-7.297566561865388        -9.125                   0.6314694554005386
-3.250000000000025        -12.5                    0.7266576956370411
-3.375000000000026        -12.297566561865388      0.7374223271164609
-3.0000000000000244       -12.5                    0.7254356830379174
-3.125000000000025        -12.297566561865388      0.7395543359498071
-7.500000000000001        -8.750000000000002       0.6296281463490632
-7.297566561865388        -8.875                   0.6299461941880251
-2.750000000000023        -12.5                    0.7207237769392772
-2.8750000000000244       -12.297566561865388      0.7374053996266651
-2.500000000000023        -12.5                    0.7111783044462826
-2.6250000000000235       -12.297566561865388      0.7343170968643268
-7.5                      -8.500000000000002       0.6290248291094397
-7.297566561865388        -8.625                   0.62905003553738
-2.2500000000000218       -12.5                    0.6994956544386576
-2.3750000000000226       -12.297566561865388      0.7324928884569855
-2.0000000000000213       -12.5                    0.6896827728813922
-2.1250000000000218       -12.297566561865388      0.7289730396177977
-7.5                      -8.25                    0.628989080444563
-7.297566561865388        -8.375                   0.628755435317616
-1.7500000000000209       -12.5                    0.6786213875644306
-1.875000000000021        -12.297566561865388      0.7211795606250928
-1.5000000000000195       -12.5                    0.6658294247889639
-1.6250000000000204       -12.297566561865388      0.7080437464430273
-7.5                      -8                       0.6294543678955016
-7.297566561865388        -8.125                   0.6290051069420736
-1.250000000000019        -12.5                    0.6518822907944607
-1.3750000000000195       -12.297566561865388      0.6904728715024854
-1.0000000000000178       -12.5                    0.6379520315828517
-1.1250000000000184       -12.297566561865388      0.6706669250599974
-7.5                      -7.75                    0.6303370037124231
-7.297566561865388        -7.875                   0.6297194514771055
-0.7500000000000178       -12.5                    0.6253827993919225
-0.8750000000000177       -12.297566561865388      0.6512442366770189
-0.5000000000000164       -12.5                    0.6153366417755767
-0.625000000000017        -12.297566561865388      0.6345217593984174
-7.5                      -7.5                     0.6315456777924647
-7.297566561865388        -7.625                   0.6308068496135029
-0.250000000000016        -12.5                    0.6086249988026166
-0.37500000000001626      -12.297566561865388      0.6221476572731947
-1.509903313490213E-14    -12.5                    0.6056969663897799
-0.12500000000001554      -12.297566561865388      0.6150750940538606
-7.500000000000001        -7.25                    0.6329896204840958
-7.297566561865389        -7.375                   0.6321730092060723
0.2499999999999858        -12.5                    0.6067011362049425
0.12499999999998535       -12.297566561865388      0.6137135061248862
0.4999999999999867        -12.5                    0.6115320057667216
0.37499999999998623       -12.297566561865388      0.6180771283545066
-7.500000000000001        -7                       0.6345846267279048
-7.297566561865389        -7.125                   0.633728255717153
0.7499999999999876        -12.5                    0.6198185014742527
0.624999999999987         -12.297566561865388      0.6278195575499405
-7.500000000000001        -6.75                    0.6362567673322652
-7.297566561865388        -6.875                   0.6353923620110656
0.999999999999988         -12.5                    0.6308780434208446
0.8749999999999879        -12.297566561865388      0.6421406253410272
1.2499999999999893        -12.5                    0.6437089053641829
1.1249999999999887        -12.297566561865388      0.6596479968260089
-7.5                      -6.5                     0.6379440277404339
-7.297566561865388        -6.625                   0.6370970448074971
1.4999999999999893        -12.5                    0.6571018110018706
1.3749999999999893        -12.297566561865388      0.67833025402043
1.7499999999999907        -12.5                    0.6699479247368959
1.6249999999999896        -12.297566561865388      0.6958130078111684
-7.5                      -6.249999999999999       0.6395963311363351
-7.297566561865388        -6.375                   0.6387865612816644
1.9999999999999911        -12.5                    0.6817406905595234
1.8749999999999905        -12.297566561865388      0.7099659257449579
2.2499999999999925        -12.5                    0.6928475062018222
2.1249999999999916        -12.297566561865388      0.7196883358891143
-7.5                      -5.999999999999999       0.6411744582477401
-7.297566561865388        -6.125                   0.6404169512650036
2.499999999999993         -12.5                    0.7052218187977601
2.3749999999999925        -12.297566561865388      0.7255396575519953
2.7499999999999933        -12.5                    0.7172172949822063
2.624999999999993         -12.297566561865388      0.7298225136459412
-7.5                      -5.749999999999999       0.6426483264069125
-7.297566561865388        -5.875                   0.6419544470905363
2.9999999999999947        -12.5                    0.7235608961339525
2.8749999999999933        -12.297566561865388      0.7350788123788782
3.2499999999999947        -12.5                    0.7260213008038892
3.1249999999999933        -12.297566561865388      0.7387649607631999
-7.5                      -5.499999999999999       0.6439949883043788
-7.297566561865388        -5.625                   0.6433734755085467
3.499999999999996         -12.5                    0.7252112131212471
3.3749999999999947        -12.297566561865388      0.7377650548852567
3.7499999999999964        -12.5                    0.7220753342606896
3.624999999999995         -12.297566561865388      0.7336457404141479
-7.5                      -5.249999999999998       0.6451965961414086
-7.297566561865388        -5.375                   0.644654553358067
3.9999999999999973        -12.5                    0.717466907397634
3.8749999999999964        -12.297566561865388      0.727614612802885
4.249999999999998         -12.5                    0.7120810915174379
4.124999999999997         -12.297566561865388      0.720623094397011
-7.500000000000001        -4.999999999999998       0.6462384733606442
-7.297566561865388        -5.125                   0.6457822622669512
4.499999999999997         -12.5                    0.7064462406666925
4.374999999999998         -12.297566561865388      0.7133846806583537
4.749999999999998         -12.5                    0.7009345616270496
4.624999999999999         -12.297566561865388      0.7063853230001947
-7.5                      -4.749999999999998       0.6471073541701758
-7.297566561865388        -4.875                   0.6467433927706719
4.999999999999998         -12.5                    0.6957868764897358
4.8750002374211485        -12.297566737232975      0.6999249108262449
5.249999999999998         -12.5                    0.6911417805129972
5.125038771618699         -12.29758730529595       0.6941614776642132
-7.5                      -4.499999999999998       0.6477897920252549
-7.297566561865388        -4.624999999999999       0.6475252786148012
5.499999999999998         -12.5                    0.6870638984359424
5.3751407540392           -12.29769047266774       0.6891548005789553
5.75                      -12.5                    0.6835683126204145
5.62530394006286          -12.297952513873353      0.6849020563682164
-7.5                      -4.249999999999998       0.648270698637293
-7.297566561865388        -4.374999999999999       0.6481142949126474
5.999999999999999         -12.499999999999998      0.6806399184120185
5.87549348520752          -12.298384645793815      0.6813640255324867
-7.5                      -3.9999999999999964      0.6485319496895582
-7.297566561865388        -4.124999999999999       0.6484944638562541
6.25                      -12.5                    0.6782477250536633
6.125869195939302         -12.298765062451254      0.6784802320767617
6.5                       -12.5                    0.6763548678793708
6.375780386092047         -12.29973874917467       0.6761982502156471
-7.5                      -3.7499999999999964      0.6485509769770579
-7.297566561865388        -3.8749999999999987      0.6486460930101026
6.75                      -12.5                    0.6749252725816497
6.626182432210402         -12.300205308922132      0.6744443818284108
7                         -12.5                    0.6739279217217525
6.87503177961564          -12.305878096790394      0.6732176757264242
-7.5                      -3.4999999999999973      0.6482992547185936
-7.297566561865388        -3.624999999999998       0.6485443587625676
7.25                      -12.5                    0.6733392221063257
7.122419833832843         -12.314273476999253      0.672455970048874
7.5                       -12.5                    0.6731446601522156
7.330549097287276         -12.337066163358275      0.6722399440652844
-7.500000000000001        -3.2499999999999964      0.6477405770772243
-7.297566561865388        -3.374999999999998       0.6481577373396439
7.5                       -12.250000000000018      0.671540004273998
-7.500000000000001        -2.9999999999999964      0.6468290126717163
-7.297566561865388        -3.1249999999999964      0.64744617526341
7.5                       -12.000000000000018      0.669500281653051
7.280325652603539         -12.121057339792108      0.6707016906301984
-7.5                      -2.7499999999999956      0.6455064101835712
-7.297566561865388        -2.8749999999999964      0.6463588791022828
7.5                       -11.750000000000014      0.6670229261850905
7.296816727387784         -11.860491593320134      0.6683054098242033
-7.5                      -2.4999999999999956      0.6436993203332253
-7.297566561865388        -2.6249999999999964      0.6448315917025685
7.5                       -11.500000000000014      0.6641234116929303
7.2963067823546695        -11.619847917335983      0.6656911507826461
-7.5                      -2.2499999999999956      0.6413152028182142
-7.297566561865388        -2.3749999999999964      0.6427832132855363
7.5                       -11.250000000000014      0.6608387299327001
7.296193798816304         -11.373053116495509      0.6626116679871467
-7.5                      -1.9999999999999956      0.6382378237365997
-7.297566561865388        -2.1249999999999964      0.6401116324563062
7.5                       -11.000000000000014      0.6572301176124974
7.296682635510101         -11.123081789633817      0.6591290330959393
-7.5                      -1.7499999999999956      0.6343218639184321
-7.297566561865388        -1.8749999999999962      0.636688681051829
7.5                       -10.750000000000014      0.6533839270541983
7.297215456100371         -10.87373242639923       0.6553648824519326
-7.5                      -1.4999999999999956      0.6293870114665268
-7.297566561865388        -1.6249999999999958      0.6323542796435606
7.5                       -10.500000000000014      0.6494101579185818
7.297469216310009         -10.624433076684582      0.6514108007474463
-7.5                      -1.2499999999999956      0.6232120819258055
-7.297566561865388        -1.3749999999999953      0.6269102759011701
7.5                       -10.250000000000014      0.6454382059474734
7.29754482162578          -10.374831736824435      0.6473823109285735
-7.500000000000001        -0.9999999999999947      0.6155336775406648
-7.297566561865388        -1.124999999999995       0.6201143638290413
7.5                       -10.000000000000014      0.6416096045602669
7.297566561865388         -10.125000000000014      0.6434191860223826
-7.5                      -0.7499999999999938      0.6065774031474384
-7.297566561865388        -0.8749999999999943      0.6117751756210951
7.5                       -9.750000000000014       0.6380680520176104
7.297566561865388         -9.875000000000014       0.6396700585226914
-7.5                      -0.4999999999999938      0.602904078799342
-7.297566561865388        -0.6249999999999941      0.6046070036709524
7.5                       -9.500000000000014       0.6349476017539657
7.297566561865388         -9.625000000000014       0.6362821348754969
-7.5                      -0.24999999999999378     0.6048543622387383
-7.297566561865388        -0.37499999999999406     0.6039742542036964
7.5                       -9.250000000000014       0.6323605035024256
7.297566561865388         -9.375000000000014       0.6333839385861387
-7.5                      5.329070518200751E-15    0.6115656373385431
-7.297566561865388        -0.12499999999999427     0.6087295219432088
7.5                       -9.000000000000014       0.6303866192351859
7.297566561865388         -9.125000000000014       0.6310757158855332
-7.5                      0.25000000000000533      0.6225778150771247
-7.297566561865388        0.12500000000000552      0.6182760378700133
7.5                       -8.750000000000014       0.6290663811851551
7.297566561865388         -8.875000000000014       0.6294197853949761
-7.5                      0.5000000000000053       0.6375850215190835
-7.297566561865388        0.3750000000000056       0.6323587319994849
-7.5                      0.7500000000000071       0.6560935877496971
-7.297566561865388        0.6250000000000062       0.6507005178054034
7.5                       -8.500000000000014       0.6283987192758022
7.297566561865388         -8.625000000000014       0.6284355310611449
-7.5                      1.000000000000007        0.677113854197997
-7.297566561865388        0.8750000000000068       0.672633584778411
-7.5                      1.250000000000007        0.6989806459715399
-7.297566561865388        1.1250000000000069       0.6967976230398545
7.5                       -8.250000000000014       0.6283443165968955
7.297566561865388         -8.375000000000014       0.6281001208554687
-7.5                      1.500000000000007        0.719406632617566
-7.297566561865388        1.375000000000007        0.7210286631042764
7.5                       -8.000000000000014       0.6288333041314141
7.297566561865388         -8.125000000000014       0.6283546562281394
-7.5                      1.750000000000007        0.7358135247420723
-7.297566561865388        1.625000000000007        0.742550828487378
-7.5                      2.000000000000007        0.7458606218123873
-7.297566561865388        1.875000000000007        0.7584769539039081
7.5                       -7.750000000000013       0.6297755673675529
7.297566561865388         -7.875000000000014       0.6291141463474071
-7.5                      2.250000000000007        0.747972266373156
-7.297566561865388        2.125000000000007        0.766457667801924
-7.5                      2.500000000000007        0.7416546115688244
-7.297566561865388        2.375000000000007        0.7652132568586305
7.5                       -7.5000000000000115      0.6310715403837484
7.297566561865388         -7.625000000000014       0.6302790022097758
-7.5                      2.750000000000007        0.7275101412759636
-7.297566561865388        2.625000000000007        0.7547429043057655
-7.5                      3.000000000000009        0.7070134586527529
-7.297566561865388        2.875000000000007        0.7361931503226568
7.5                       -7.2500000000000115      0.6326217042311277
7.297566561865388         -7.375000000000014       0.6317458506455732
-7.5                      3.250000000000009        0.6821888701447198
-7.297566561865388        3.125000000000007        0.7115263739236005
-7.5                      3.500000000000008        0.6553034108532654
-7.297566561865388        3.3750000000000075       0.683153781582048
7.5                       -7.000000000000011       0.6343337137444605
7.297566561865388         -7.125000000000014       0.6334161533668303
-7.5                      3.750000000000008        0.6286237720760532
-7.297566561865388        3.6250000000000075       0.6536219499878079
-7.5                      4.00000000000001         0.6042518799683408
-7.297566561865388        3.8750000000000075       0.6253734150153233
7.5                       -6.750000000000011       0.636126821828379
7.297566561865388         -6.875000000000014       0.6352019773651904
-7.5                      4.25000000000001         0.5840623643082586
-7.297566561865388        4.125000000000009        0.6005949610619131
-7.5                      4.500000000000011        0.5697818675976682
-7.297566561865388        4.37500000000001         0.5811943875356534
7.5                       -6.500000000000011       0.6379338333999244
7.297566561865388         -6.625000000000014       0.6370289807553412
-7.5                      4.750000000000011        0.5632459143245103
-7.297566561865388        4.6250000000000115       0.56895667562544
-7.5                      5.000000000000011        0.5667755345610588
-7.297566561865388        4.875000000000012        0.5659190921536422
7.5                       -6.250000000000011       0.639701130321687
7.297566561865388         -6.375000000000013       0.6388371166091557
-7.5                      5.250000000000011        0.5821804423007375
-7.297566561865389        5.125000000000013        0.5749834325216764
7.5                       -6.000000000000011       0.6413873952465398
7.297566561865388         -6.125000000000013       0.640579724988111
-7.5                      5.500000000000011        0.5969736511999328
-7.297566561865388        5.375000000000017        0.5910257584635242
-7.5                      5.750000000000011        0.6089090061583481
-7.297566561865387        5.625000000000031        0.6040774447994933
7.5                       -5.750000000000011       0.6429616018187624
7.297566561865388         -5.875000000000013       0.6422216585724881
-7.5                      6.000000000000011        0.6185973773960806
-7.297566561865384        5.87500000000009         0.6146440007020368
-7.5                      6.250000000000011        0.6265219585307801
-7.297566561865373        6.125000000000333        0.6232564559335603
-7.5                      6.500000000000011        0.6330637870067027
-7.297566561865314        6.375000000001305        0.6303368695931456
7.5                       -5.500000000000011       0.6444007075427429
7.297566561865388         -5.625000000000013       0.6437369602593345
-7.5                      6.750000000000011        0.6385218538815839
-7.297566561865044        6.625000000005127        0.6362171577711712
7.5                       -5.250000000000011       0.6456873400615323
7.297566561865388         -5.375000000000013       0.6451064530376976
-7.5                      7.000000000000011        0.643129670333793
-7.29756656186382         6.875000000019817        0.641156702430881
-7.5                      7.2500000000000115       0.6470690102279181
-7.29756656185848         7.125000000074949        0.6453575757889177
7.5                       -5.000000000000011       0.6468076394501576
7.297566561865388         -5.125000000000012       0.6463154563801802
-7.5                      7.5000000000000115       0.6504809460059469
-7.297566561836024        7.375000000276358        0.648976781295349
-7.5                      7.750000000000013        0.6534745678998446
-7.297566561745047        7.625000000990684        0.6521359278706607
7.5                       -4.750000000000011       0.6477493207936833
7.297566561865388         -4.8750000000000115      0.6473517280986796
-7.5                      8.000000000000014        0.6561338127594382
-7.2975665613904175       7.875000003442889        0.6549288210067009
-7.5                      8.250000000000014        0.6585227707294324
-7.2975665600628234       8.125000011565119        0.6574273797459668
7.5                       -4.500000000000011       0.6484999530448154
7.297566561865388         -4.625000000000011       0.6482036490829887
-7.5                      8.500000000000014        0.6606897716221329
-7.297566555300503        8.375000037439014        0.6596862105486401
-7.5                      8.750000000000014        0.6626704967346596
-7.297566538969233        8.625000116486598        0.6617461065596385
7.5                       -4.25000000000001        0.6490454063849034
7.297566561865388         -4.37500000000001        0.6488586155492205
-7.5                      9.000000000000014        0.6644903163266535
-7.297566485545779        8.875000347700698        0.6636366910512757
-7.5                      9.250000000000014        0.6661660160541069
-7.2975663191367355       9.12500099571758         0.665378383429291
7.5                       -4.00000000000001        0.6493683937849618
7.297566561865388         -4.125000000000009       0.6493015716110041
-7.5                      9.500000000000014        0.6677070461247897
-7.297565826453352        9.375002745899595        0.6669838335199328
7.5                       -3.750000000000008       0.6494470163716868
7.297566561865388         -3.8750000000000075      0.6495135965070827
-7.5                      9.750000000000014        0.6691164041744457
-7.297564445934005        9.625007366912326        0.6684589444456418
-7.5                      10.000000000000014       0.6703912464275237
-7.2975608455778165       9.87501962835813         0.6698035868006614
-7.5                      10.250000000000014       0.6715233111416105
-7.2975527564169225       10.125053765536325       0.6710121000656185
7.5                       -3.500000000000008       0.649253211058785
7.297566561865388         -3.6250000000000075      0.6494704493441993
-7.5                      10.500000000000014       0.6724992333662247
-7.297544700771562        10.375158554811264       0.6720736900409094
-7.5                      10.750000000000014       0.6733008283048122
-7.297237570906325        10.625280909610685       0.672972264591698
7.5                       -3.250000000000009       0.6487509887312473
7.297566561865388         -3.3750000000000075      0.6491409650157665
-7.5                      11.000000000000014       0.6739054269860837
-7.296637141477152        10.875912751841952       0.6736884288267784
7.5                       -3.000000000000009       0.6478943395662345
7.297566561865388         -3.125000000000007       0.6484851848280445
-7.5                      11.250000000000014       0.6742863443414665
-7.295157557425814        11.12792707441762        0.6741976866291917
-7.5                      11.500000000000014       0.6744135683043307
-7.294713616206047        11.383188153295961       0.6744666840179147
7.5                       -2.750000000000007       0.6466246677941702
7.297566561865388         -2.875000000000007       0.6474520925106662
-7.5                      11.750000000000014       0.6742548133838238
-7.294986985216417        11.62828959551707        0.6744598590620582
-7.5                      12.000000000000018       0.6737769599700805
-7.2984011646841855       11.865385604953703       0.6741734041257956
7.5                       -2.500000000000007       0.644867601816086
7.297566561865388         -2.625000000000007       0.6459768103886817
-7.5                      12.250000000000018       0.6729477536299789
-7.275397475498109        12.122115101058466       0.6735521101444419
-7.5                      12.5                     0.6717389011645308
-7.328022341935925        12.339061833572298       0.6726464346535884
7.5                       -2.250000000000007       0.6425290085390059
7.297566561865388         -2.375000000000007       0.6439770930154375
-7.25                     12.5                     0.6719246858404335
7.5                       -2.000000000000007       0.6394900203797225
7.297566561865388         -2.125000000000007       0.6413489399453723
-7                        12.5                     0.6724870130228041
-7.114714234181513        12.323194066803016       0.6730576114037482
7.5                       -1.750000000000007       0.6356008221198333
7.297566561865388         -1.875000000000007       0.6379611388684858
-6.75                     12.5                     0.6734405948941955
-6.877989465428228        12.305337452555117       0.6738182638528231
7.5                       -1.500000000000007       0.6306725843366555
7.297566561865388         -1.625000000000007       0.6336485354148108
-6.5                      12.5                     0.6748093486554486
-6.6303493269929845       12.299431906490378       0.6749151193407433
7.5                       -1.250000000000007       0.6244650003639802
7.297566561865388         -1.375000000000007       0.6282037739367209
-6.25                     12.5                     0.6766252675084851
-6.379846550116931        12.298398915301492       0.6763961916277151