% Model:              U4_backwards_compatible.mph
% Version:            COMSOL 5.1.0.234
% Date:               Aug 16 2022, 11:42
% Dimension:          2
% Nodes:              7634
% Expressions:        1
% Description:        Dependent variable u
% Length unit:        m
% x                       y                        u (1) @ t=500
-7.5                      -12.5                    0.636407006369453
-7.250000000000133        -12.5                    0.6365509803035575
-7.337467140714745        -12.329651574551194      0.6377608561778513
-7.499999999999999        -12.249999999999996      0.6382643750258008
-7.00000000000013         -12.5                    0.6369824980951677
-7.121656495314211        -12.277385675229983      0.6384380597418007
-7.5                      -11.999999999999996      0.6399008636005148
-7.315679208259377        -12.12087219752599       0.6392326705597502
-6.750000000000128        -12.5                    0.637700621801484
-6.861097408457507        -12.298460102229008      0.638957895750044
-7.5                      -11.749999999999993      0.6412802711314247
-7.305678822689975        -11.878019377584284      0.6407216355109416
-6.500000000000124        -12.5                    0.6387030483095046
-6.618706031168089        -12.297578238319844      0.6399032089950153
-7.500000000000001        -11.499999999999993      0.6423695144281036
-7.300979653050844        -11.62754977113695       0.6419803766186133
-6.250000000000123        -12.5                    0.6399855935945553
-6.3730080229996915       -12.296731258729514      0.6411691356763481
-7.5                      -11.24999999999999       0.6431405562303272
-7.299892167059557        -11.376802265715625      0.642928236079492
-6.000000000000121        -12.5                    0.641540744148717
-6.123449325378588        -12.296850069422781      0.6427633092352673
-7.5                      -10.99999999999999       0.6435722443539199
-7.299236716008845        -11.126397090925856      0.6435409741278177
-5.750000000000117        -12.5                    0.643355738517903
-5.873812060373251        -12.297197084502967      0.6446716507470936
-7.5                      -10.749999999999986      0.6436519177772916
-7.298782900599218        -10.876065443257303      0.643802612817034
-5.5000000000001155       -12.5                    0.6454097461816457
-5.624432920877559        -12.297449799498764      0.6468865660359397
-7.499999999999999        -10.499999999999986      0.6433765873576756
-7.29829725322039         -10.625679442536171      0.6437052886024387
-5.250000000000114        -12.5                    0.6476698284227236
-5.374778896194034        -12.297539107962342      0.6493981247310114
-7.5                      -10.249999999999984      0.6427535357482622
-7.297926680657121        -10.375393351214836      0.6432509098160418
-5.00000000000011         -12.5                    0.6500853352430864
-5.125000000000111        -12.297566561865388      0.6521754102627572
-7.5                      -9.999999999999982       0.6418002180029353
-7.297710866790436        -10.125187325060487      0.6424523503056703
-4.750000000000108        -12.5                    0.6525804242063785
-4.8750000000001075       -12.297566561865388      0.6551695255703266
-7.500000000000001        -9.74999999999998        0.6405434282398036
-7.297604477248478        -9.875068211773142       0.6413327501689281
-4.500000000000105        -12.5                    0.6550444829125582
-4.625000000000106        -12.297566561865386      0.658296043168609
-4.250000000000103        -12.5                    0.6573207352366498
-4.375000000000106        -12.297566561865388      0.6614277334218458
-7.5                      -9.499999999999979       0.6390177870415495
-7.297571022746962        -9.625016759688604       0.6399239517441161
-4.000000000000101        -12.5                    0.6591942081334771
-4.125000000000103        -12.297566561865388      0.6643741756161649
-3.7500000000000977       -12.5                    0.660381785860761
-3.8750000000001          -12.297566561865386      0.666862048901251
-7.5                      -9.249999999999975       0.6372636985195903
-7.29756685930099         -9.37500131685328        0.638264577316832
-3.500000000000096        -12.5                    0.6605291121840879
-3.6250000000000973       -12.297566561865388      0.6685175728034324
-7.5                      -8.999999999999975       0.635324997753776
-7.297566561865387        -9.124999999999973       0.6363978224090929
-3.2500000000000937       -12.5                    0.6592211553137789
-3.3750000000000946       -12.297566561865388      0.6688588611001386
-3.0000000000000906       -12.5                    0.6560143492367753
-3.125000000000092        -12.297566561865388      0.6673096814288845
-7.5                      -8.749999999999972       0.6332465456818273
-7.297566561865387        -8.874999999999973       0.6343690336392002
-2.750000000000089        -12.5                    0.6504967347722787
-2.87500000000009         -12.297566561865388      0.6632483664773622
-2.5000000000000857       -12.5                    0.642377956517868
-2.6250000000000875       -12.297566561865388      0.6561011097133452
-7.5                      -8.499999999999968       0.6310720203102455
-7.297566561865387        -8.624999999999972       0.6322233979843732
-2.2500000000000835       -12.5                    0.6316073838428283
-2.375000000000085        -12.297566561865388      0.6454794216669518
-2.0000000000000813       -12.5                    0.6185020849926208
-2.125000000000082        -12.297566561865388      0.6313870395272768
-7.5                      -8.249999999999964       0.6288421026230613
-7.297566561865386        -8.374999999999968       0.6300038041845618
-1.7500000000000786       -12.5                    0.6037657111497695
-1.8750000000000797       -12.297566561865388      0.6145129544076449
-1.5000000000000764       -12.5                    0.5882541221096206
-1.6250000000000773       -12.297566561865388      0.5962662414554306
-7.5                      -7.9999999999999645      0.6265931758154484
-7.297566561865387        -8.124999999999964       0.6277492430639557
-1.2500000000000742       -12.5                    0.5729217113250035
-1.3750000000000753       -12.297566561865388      0.5770180244768978
-1.000000000000071        -12.5                    0.5588361193155043
-1.1250000000000724       -12.297566561865386      0.5595421168671383
-7.5                      -7.749999999999961       0.6243565667782249
-7.297566561865386        -7.874999999999962       0.6254937850715683
-0.7500000000000693       -12.5                    0.5474567381704984
-0.8750000000000702       -12.297566561865388      0.5461068054165158
-0.5000000000000662       -12.5                    0.538978196064639
-0.6250000000000677       -12.297566561865388      0.536401638357557
-7.5                      -7.49999999999996        0.6221582792508591
-7.297566561865387        -7.62499999999996        0.623266106380476
-0.25000000000006395      -12.5                    0.5334745884627116
-0.3750000000000651       -12.297566561865388      0.5297812608013232
-6.128431095930864E-14    -12.5                    0.531688275054361
-0.12500000000006262      -12.297566561865386      0.526318955622545
-7.499999999999999        -7.249999999999957       0.6200191133500406
-7.297566561865387        -7.374999999999958       0.6210894719991442
0.2499999999999405        -12.5                    0.532930269504869
0.1249999999999396        -12.297566561865388      0.526004801179674
0.49999999999994316       -12.5                    0.5378488539935246
0.3749999999999419        -12.297566561865388      0.5288269107991911
-7.500000000000001        -6.999999999999956       0.6179550420389881
-7.297566561865387        -7.124999999999957       0.6189820445014053
0.7499999999999454        -12.5                    0.5456777934953978
0.6249999999999443        -12.297566561865388      0.5347701943577037
-7.5                      -6.749999999999954       0.6159777185166743
-7.297566561865387        -6.8749999999999565      0.6169573797345073
0.9999999999999485        -12.5                    0.5563049928879041
0.8749999999999468        -12.297566561865388      0.543721213833975
1.2499999999999503        -12.5                    0.5696328334249712
1.1249999999999492        -12.297566561865388      0.5561431456687499
-7.5                      -6.49999999999995        0.6140950106746291
-7.297566561865387        -6.624999999999953       0.6150249884745566
1.4999999999999534        -12.5                    0.5845708237309044
1.374999999999952         -12.297566561865388      0.5727987420524857
1.7499999999999556        -12.5                    0.5999947673340493
1.6249999999999547        -12.297566561865388      0.5916615934830038
-7.5                      -6.249999999999947       0.6123114891968955
-7.297566561865386        -6.3749999999999485      0.6131908739604395
1.9999999999999578        -12.5                    0.6148346218442153
1.8749999999999563        -12.297566561865388      0.6101565129487199
2.2499999999999605        -12.5                    0.628160329604831
2.1249999999999587        -12.297566561865388      0.6272666749302176
-7.5                      -5.999999999999943       0.6106288257440204
-7.297566561865386        -6.124999999999945       0.6114579887063294
2.4999999999999627        -12.5                    0.6392535773498332
2.3749999999999614        -12.297566561865388      0.6417222918872832
2.749999999999965         -12.5                    0.6477648044456079
2.624999999999964         -12.297566561865388      0.6528211116809821
-7.5                      -5.7499999999999405      0.6090460814900357
-7.297566561865386        -5.874999999999942       0.609826582486109
2.999999999999968         -12.5                    0.653706372242791
2.8749999999999667        -12.297566561865388      0.660493058323857
3.24999999999997          -12.5                    0.6573362499453204
3.1249999999999694        -12.297566561865388      0.6650840193626317
-7.5                      -5.499999999999939       0.6075598819839055
-7.297566561865386        -5.624999999999939       0.6082944334096666
3.499999999999973         -12.5                    0.6590405793701419
3.3749999999999716        -12.297566561865388      0.6671318465949635
3.749999999999975         -12.5                    0.6592460022645266
3.624999999999974         -12.297566561865388      0.6672311732323432
-7.5                      -5.249999999999936       0.6061644822434811
-7.297566561865387        -5.374999999999936       0.6068569652587515
3.999999999999977         -12.5                    0.6583601981886114
3.874999999999976         -12.297566561865388      0.6659463732170711
4.249999999999979         -12.5                    0.6567375451249692
4.124999999999978         -12.297566561865386      0.663759924310502
-7.5                      -4.9999999999999325      0.6048517277758003
-7.297566561865386        -5.124999999999933       0.6055072582307086
4.4999999999999805        -12.5                    0.6546655421421123
4.37499999999998          -12.297566561865388      0.6610529533215983
4.749999999999982         -12.5                    0.6523654908324378
4.6249999999999805        -12.297566561865388      0.6581086548393462
-7.5                      -4.749999999999929       0.6036109147479595
-7.297566561865386        -4.87499999999993        0.604235959065754
4.999999999999984         -12.5                    0.6500008797991557
4.875000237421131         -12.297566737232975      0.6551274357327287
5.249999999999984         -12.5                    0.6476885510851774
5.1250387716186845        -12.29758730529595       0.6522446796023296
-7.5                      -4.499999999999925       0.6024285473922809
-7.297566561865386        -4.624999999999927       0.603031092125506
5.499999999999988         -12.500000000000002      0.6455097075472717
5.375140754039187         -12.297690472667737      0.6495485652523812
5.749999999999988         -12.5                    0.6435193898607048
5.625303940062854         -12.29795251387332       0.6470949266176435
-7.5                      -4.249999999999923       0.6012879839464957
-7.297566561865386        -4.374999999999924       0.6018777666994531
5.99999999999999          -12.5                    0.6417540276667811
5.87549348520746          -12.298384645793568      0.6449185784726302
-7.5                      -3.999999999999921       0.6001689544553849
-7.297566561865386        -4.124999999999922       0.6007577683561357
6.249999999999991         -12.499999999999998      0.6402371446841826
6.125869195938994         -12.29876506245044       0.6430403835260735
6.499999999999993         -12.5                    0.6389835243362045
6.375780386089769         -12.299738749169684      0.6414684108408225
-7.5                      -3.7499999999999174      0.5990469245526167
-7.297566561865387        -3.8749999999999187      0.5996490136822518
6.749999999999995         -12.499999999999998      0.6380021760004525
6.626182432203677         -12.300205308903218      0.6402116112512991
6.9999999999999964        -12.5                    0.6372984405488379
6.875031779587783         -12.305878096783987      0.639232659336571
-7.5                      -3.4999999999999147      0.5978922684699737
-7.297566561865386        -3.6249999999999165      0.5985248379837883
7.249999999999998         -12.5                    0.6368752459380267
7.122419833800932         -12.314273476995993      0.638549112638258
7.5                       -12.5                    0.6367340366999243
7.3305490972724865        -12.337066163356116      0.6380921715093247
-7.5                      -3.249999999999911       0.5966692012527832
-7.297566561865386        -3.374999999999913       0.597353073844955
7.5                       -12.250000000000274      0.638674922520077
-7.5                      -2.9999999999999076      0.5953344035191965
-7.297566561865386        -3.1249999999999094      0.5960948639766207
7.5                       -12.00000000000027       0.6403980037834966
7.280325652561501         -12.121057339784308      0.6397240200907887
-7.5                      -2.749999999999906       0.593835250923605
-7.297566561865387        -2.8749999999999063      0.5947031334378378
7.5                       -11.75000000000027       0.6418660476124478
7.296816727380562         -11.86049159324837       0.6413749849616965
-7.5                      -2.4999999999999023      0.5921075335295283
-7.297566561865387        -2.6249999999999036      0.5931206228083833
7.5                       -11.500000000000266      0.6430443660032037
7.296306782353468         -11.619847917324217      0.6426521790743028
-7.5                      -2.2499999999998987      0.5900725165332991
-7.297566561865386        -2.3749999999999005      0.5912773538996324
7.5                       -11.250000000000263      0.6439032722198794
7.296193798816024         -11.373053116493208      0.6436650038100663
-7.5                      -1.999999999999897       0.5876331531322997
-7.297566561865387        -2.124999999999898       0.5890873620747764
7.5                       -11.00000000000026       0.6444198781410532
7.296682635509787         -11.123081789632861      0.6443575391919537
-7.5                      -1.7499999999998934      0.5846692155654101
-7.297566561865386        -1.8749999999998952      0.5864444843307091
7.5                       -10.750000000000256      0.644579787290738
7.297215456100137         -10.87373242639906       0.6446958512749953
-7.5                      -1.4999999999998899      0.5810310719016263
-7.297566561865386        -1.6249999999998916      0.5832169434143509
7.5                       -10.500000000000252      0.6443783732035304
7.297469216309853         -10.624433076684706      0.6446728274434367
-7.5                      -1.249999999999888       0.5765318354218562
-7.297566561865386        -1.374999999999889       0.5792404274348565
7.5                       -10.250000000000252      0.6438214709480725
7.297544821625707         -10.374831736824646      0.6442882532680962
-7.5                      -0.9999999999998845      0.5709377445136362
-7.297566561865387        -1.124999999999886       0.5743093656602402
7.5                       -10.000000000000249      0.6429253486390143
7.297566561865386         -10.125000000000252      0.6435521256225214
-7.5                      -0.749999999999881       0.5639572043401726
-7.297566561865386        -0.8749999999998832      0.5681662369011887
7.5                       -9.750000000000245       0.6417159174548767
7.297566561865387         -9.875000000000247       0.6424853461319472
-7.5                      -0.4999999999998792      0.5552313915275012
-7.297566561865387        -0.6249999999998802      0.5604892630157989
7.5                       -9.500000000000242       0.6402272357053941
7.297566561865387         -9.625000000000243       0.6411190768929845
-7.5                      -0.24999999999987566     0.5443339726791613
-7.297566561865387        -0.3749999999998772      0.5508796010790729
7.5                       -9.250000000000238       0.6384994591993138
7.297566561865387         -9.37500000000024        0.6394914583991128
-7.5                      1.2789769243681803E-13   0.5312284959718858
-7.297566561865387        -0.12499999999987388     0.5389286532350072
7.5                       -9.000000000000234       0.6365764660416364
7.297566561865387         -9.125000000000238       0.637645628429299
-7.5                      0.25000000000013145      0.525350336443518
-7.297566561865387        0.1250000000001294       0.5280202375950099
7.5                       -8.750000000000231       0.6345034197330295
7.297566561865387         -8.875000000000234       0.6356271934422145
-7.5                      0.5000000000001332       0.5288242486150453
-7.297566561865387        0.37500000000013234      0.5271051626734385
-7.5                      0.7500000000001368       0.5413018953990274
-7.297566561865387        0.6250000000001352       0.5355647953667507
7.5                       -8.500000000000231       0.6323245240997118
7.297566561865386         -8.625000000000231       0.6334817808523852
-7.5                      1.0000000000001403       0.5634156139923945
-7.297566561865387        0.8750000000001384       0.5537621403951506
-7.5                      1.250000000000142        0.5961611930524404
-7.297566561865386        1.1250000000001412       0.5828483596490616
7.5                       -8.250000000000227       0.630081169663313
7.297566561865387         -8.375000000000227       0.631252915862308
-7.5                      1.5000000000001457       0.6399908516125806
-7.297566561865386        1.3750000000001439       0.6239580956531482
7.5                       -8.000000000000224       0.6278105891841154
7.297566561865386         -8.125000000000226       0.6289803897931777
-7.5                      1.7500000000001492       0.6936838343616395
-7.297566561865386        1.6250000000001474       0.6770844802509619
-7.5                      2.000000000000151        0.7532837092995527
-7.297566561865386        1.87500000000015         0.7397508229460774
7.5                       -7.75000000000022        0.6255450507541158
7.297566561865386         -7.875000000000222       0.6266991914737413
-7.5                      2.2500000000001545       0.8117121800189603
-7.297566561865387        2.1250000000001528       0.8059964699987424
-7.5                      2.500000000000158        0.8596983467508744
-7.297566561865387        2.3750000000001563       0.8665051384159238
7.5                       -7.500000000000217       0.623311539420987
7.297566561865386         -7.6250000000002185      0.6244389820714263
-7.5                      2.75000000000016         0.888114090096244
-7.297566561865386        2.625000000000159        0.9104608636398384
-7.5                      3.0000000000001634       0.890901888649628
-7.297566561865387        2.8750000000001616       0.9287628550858568
7.5                       -7.250000000000214       0.6211318259206906
7.297566561865386         -7.375000000000216       0.6222240248568749
-7.5                      3.250000000000167        0.8672362022155421
-7.297566561865387        3.1250000000001648       0.9172103921754559
-7.5                      3.5000000000001705       0.8218499693995299
-7.297566561865387        3.3750000000001683       0.8780806954784318
7.5                       -7.000000000000212       0.6190227979993421
7.297566561865386         -7.125000000000213       0.6200734437123702
-7.5                      3.750000000000173        0.7633747740887481
-7.297566561865387        3.625000000000172        0.8193136221756535
-7.5                      4.000000000000175        0.7015323905141053
-7.297566561865386        3.875000000000174        0.7517267322761113
7.5                       -6.75000000000021        0.6169969325043371
7.297566561865387         -6.875000000000212       0.6180016770741538
-7.5                      4.2500000000001785       0.644528937436578
-7.297566561865387        4.125000000000177        0.6856593745694569
-7.5                      4.500000000000181        0.5977120699604556
-7.297566561865387        4.37500000000018         0.6286079648638468
7.5                       -6.500000000000206       0.6150628066126139
7.297566561865387         -6.625000000000209       0.6160190098593451
-7.5                      4.750000000000185        0.5637036861868163
-7.297566561865387        4.625000000000184        0.584625987876961
-7.5                      5.000000000000188        0.543510805577319
-7.297566561865387        4.875000000000187        0.5551969814171304
7.5                       -6.2500000000002025      0.6132255746953431
7.297566561865386         -6.375000000000206       0.6141320942984971
-7.5                      5.250000000000192        0.5379010240238685
-7.297566561865387        5.125000000000191        0.5407902556862357
7.5                       -6.000000000000199       0.6114873653833311
7.297566561865386         -6.125000000000202       0.612344401734935
-7.5                      5.500000000000193        0.5471346293101921
-7.297566561865387        5.375000000000196        0.5424841242214292
-7.5                      5.750000000000195        0.5568979528006583
-7.297566561865387        5.625000000000213        0.5531061528147534
7.5                       -5.750000000000195       0.6098475762919442
7.297566561865387         -5.875000000000198       0.6106565745218466
-7.5                      6.000000000000199        0.5645994892302647
-7.297566561865383        5.8750000000002744       0.5615511522551208
-7.5                      6.2500000000002025       0.5707880730538666
-7.297566561865373        6.12500000000052         0.5682878903574
-7.5                      6.500000000000206        0.5758638177457488
-7.297566561865314        6.375000000001497        0.5737703954905188
7.5                       -5.500000000000193       0.6083030594524624
7.297566561865387         -5.6250000000001945      0.6090666667479834
-7.5                      6.75000000000021         0.5801169580322219
-7.297566561865044        6.625000000005321        0.5783260368257278
7.5                       -5.250000000000192       0.6068481988640211
7.297566561865387         -5.375000000000192       0.6075702740779643
-7.5                      7.000000000000212        0.58376049116944
-7.29756656186382         6.875000000020015        0.5821944591370679
-7.5                      7.250000000000214        0.5869527162295436
-7.297566561858479        7.12500000007515         0.5855528665828783
7.5                       -5.000000000000188       0.6054748840343502
7.297566561865386         -5.12500000000019        0.6061605576518588
-7.5                      7.500000000000217        0.5898129837101436
-7.297566561836021        7.375000000276561        0.5885342380332047
-7.5                      7.75000000000022         0.5924325649350799
-7.297566561745046        7.62500000099089         0.5912398673750666
7.5                       -4.750000000000185       0.6041723815848852
7.297566561865386         -4.8750000000001865      0.6048281665674029
-7.5                      8.000000000000224        0.5948821323899316
-7.297566561390414        7.875000003443098        0.5937479568049975
-7.5                      8.250000000000227        0.5972169336904378
-7.297566560062822        8.12500001156533         0.5961195432348197
7.5                       -4.500000000000181       0.6029271024207616
7.297566561865386         -4.625000000000183       0.6035610597121875
-7.5                      8.500000000000231        0.5994803946689287
-7.297566555300502        8.375000037439227        0.5984026201796228
-7.5                      8.750000000000231        0.6017066399724144
-7.297566538969229        8.625000116486815        0.6006350232204424
7.5                       -4.2500000000001785      0.6017222556061413
7.297566561865386         -4.37500000000018        0.6023442219138833
-7.5                      9.000000000000234        0.6039222554550077
-7.2975664855457785       8.875000347700917        0.6028464541209427
-7.5                      9.250000000000238        0.6061475099256308
-7.2975663191367355       9.125000995717803        0.6050598941877424
7.5                       -4.000000000000175       0.6005373724171991
7.297566561865386         -4.125000000000177       0.6011592622607348
-7.5                      9.500000000000242        0.6083971846321079
-7.297565826453351        9.375002745899819        0.6072925773641212
7.5                       -3.750000000000173       0.5993476750815039
7.297566561865386         -3.875000000000174       0.5999838742171087
-7.5                      9.750000000000245        0.6106811140590496
-7.297564445934001        9.625007366912554        0.6095566428351681
-7.5                      10.000000000000249       0.6130045128699022
-7.297560845577814        9.875019628358361        0.6118595589048351
-7.5                      10.250000000000252       0.6153681459271175
-7.29755275641692         10.12505376553656        0.6142044123764557
7.5                       -3.5000000000001705      0.5981232540933353
7.297566561865387         -3.625000000000172       0.5987911276033429
-7.5                      10.500000000000252       0.6177683881582615
-7.29754470077156         10.375158554811502       0.6165902493826517
-7.5                      10.750000000000256       0.6201972154332464
-7.297237570905973        10.625280909610913       0.6190108550124385
7.5                       -3.250000000000167       0.5968280050731353
7.297566561865387         -3.3750000000001683      0.59754855108687
-7.5                      11.00000000000026        0.6226421690020291
-7.2966371414771585       10.875912751842193       0.6214608640332725
7.5                       -3.0000000000001634      0.595418260056713
7.297566561865387         -3.1250000000001648      0.5962169497579924
-7.5                      11.250000000000263       0.625086331365645
-7.295157557425831        11.127927074417856       0.6239344339670746
-7.5                      11.500000000000266       0.6275083601348193
-7.294713616206049        11.383188153296214       0.6264293630485768
7.5                       -2.75000000000016        0.5938410278702805
7.297566561865387         -2.8750000000001616      0.5947488846699117
-7.5                      11.75000000000027        0.629882656950247
-7.294986985216372        11.6282895955173         0.6287916984033944
-7.5                      12.00000000000027        0.632179675464148
-7.298401164683329        11.865385604953795       0.631019106726677
7.5                       -2.500000000000158       0.5920317329218866
7.297566561865387         -2.625000000000159       0.5930867188392878
-7.5                      12.250000000000274       0.6343662489596161
-7.275397475493655        12.122115101058567       0.6333579923436
-7.5                      12.5                     0.6364070063694397
-7.328022341935029        12.339061833572377       0.6351745281797881
7.5                       -2.2500000000001545      0.5899113107858844
7.297566561865387         -2.3750000000001563      0.5911601061463667
-7.249999999999998        12.5                     0.6365509803035573
7.5                       -2.000000000000151       0.5873824831548483
7.297566561865387         -2.125000000000153       0.588882765395833
-6.9999999999999964       12.5                     0.6369824980951679
-7.114714234181489        12.323194066803039       0.6352915643568481
7.5                       -1.7500000000001492      0.5843249982434372
7.297566561865386         -1.87500000000015        0.5861483426628195
-6.749999999999995        12.499999999999998       0.6377006218014842
-6.877989465427923        12.305337452555392       0.6356329410723548
7.5                       -1.5000000000001457      0.5805895977904793
7.297566561865386         -1.6250000000001474      0.582825126190537
-6.499999999999993        12.5                     0.6387030483095046
-6.630349326992596        12.29943190649118        0.6363378966604599
7.5                       -1.250000000000142       0.5759904891345301
7.297566561865386         -1.3750000000001439      0.578749354496047
-6.249999999999991        12.499999999999998       0.6399855935945553
-6.3798465501165795       12.298398915302291       0.6373398044964215
7.5                       -1.0000000000001403      0.5702962297397425
7.297566561865386         -1.1250000000001412      0.5737168879498822
-5.99999999999999         12.5                     0.6415407441487169
-6.12874173189573         12.29854644695986        0.6385937653920531
7.5                       -0.7500000000001368      0.5632192800793259
7.297566561865387         -0.8750000000001384      0.5674731927618558