% Model:              U4_backwards_compatible_without_2.mph
% Version:            COMSOL 5.1.0.234
% Date:               Sep 5 2022, 10:26
% Dimension:          2
% Nodes:              7634
% Expressions:        1
% Description:        Dependent variable u
% Length unit:        m
% x                       y                        u (1) @ t=1010
-7.5                      -12.5                    0.80208444468955
-7.250000000000133        -12.5                    0.8017591468221847
-7.337467140714745        -12.329651574551194      0.8021395557032036
-7.499999999999999        -12.249999999999996      0.8024645322017957
-7.00000000000013         -12.5                    0.8007596022261687
-7.121656495314211        -12.277385675229983      0.8016629159769086
-7.5                      -11.999999999999996      0.8034627957698838
-7.315679208259377        -12.12087219752599       0.8027450022362902
-6.750000000000128        -12.5                    0.7990172912891792
-6.861097408457507        -12.298460102229008      0.8001973323874144
-7.5                      -11.749999999999993      0.8050065474538702
-7.305678822689975        -11.878019377584284      0.8040036377290068
-6.500000000000124        -12.5                    0.7964206442851268
-6.618706031168089        -12.297578238319844      0.7981234350783663
-7.500000000000001        -11.499999999999993      0.806971815157408
-7.300979653050844        -11.62754977113695       0.8058157535456364
-6.250000000000123        -12.5                    0.7928210790592022
-6.3730080229996915       -12.296731258729514      0.7951423752613082
-7.5                      -11.24999999999999       0.8091786495584833
-7.299892167059557        -11.376802265715625      0.807997969235161
-6.000000000000121        -12.5                    0.7880403496616314
-6.123449325378588        -12.296850069422781      0.7910409309781051
-7.5                      -10.99999999999999       0.8113848596561165
-7.299236716008845        -11.126397090925856      0.8103308787709
-5.750000000000117        -12.5                    0.781880986932005
-5.873812060373251        -12.297197084502967      0.7856660942173123
-7.5                      -10.749999999999986      0.8132783552830808
-7.298782900599218        -10.876065443257303      0.8125419533790065
-5.5000000000001155       -12.5                    0.774139905797564
-5.624432920877559        -12.297449799498764      0.7788217986043035
-7.499999999999999        -10.499999999999986      0.8144685331517154
-7.29829725322039         -10.625679442536171      0.8142842012835075
-5.250000000000114        -12.5                    0.7646257666950372
-5.374778896194034        -12.297539107962342      0.7702888321897067
-7.5                      -10.249999999999984      0.8144771807636634
-7.297926680657121        -10.375393351214836      0.8151249202263403
-5.00000000000011         -12.5                    0.7531809394706115
-5.125000000000111        -12.297566561865388      0.759882840758891
-7.5                      -9.999999999999982       0.8127295225563539
-7.297710866790436        -10.125187325060487      0.8145407520350778
-4.750000000000108        -12.5                    0.7397091826092911
-4.8750000000001075       -12.297566561865388      0.7474548301822731
-7.500000000000001        -9.74999999999998        0.8085462933008674
-7.297604477248478        -9.875068211773142       0.811907948286969
-4.500000000000105        -12.5                    0.7242106941855432
-4.625000000000106        -12.297566561865386      0.7329468639586064
-4.250000000000103        -12.5                    0.7068271042824866
-4.375000000000106        -12.297566561865388      0.7164064383136938
-7.5                      -9.499999999999979       0.8011383931140807
-7.297571022746962        -9.625016759688604       0.8064946945137983
-4.000000000000101        -12.5                    0.6879008828104146
-4.125000000000103        -12.297566561865388      0.6980442793109426
-3.7500000000000977       -12.5                    0.6680575509212755
-3.8750000000001          -12.297566561865386      0.67830022990247
-7.5                      -9.249999999999975       0.7896068989428575
-7.29756685930099         -9.37500131685328        0.7974561186830416
-3.500000000000096        -12.5                    0.6483261208423446
-3.6250000000000973       -12.297566561865388      0.6579357866271409
-7.5                      -8.999999999999975       0.7729533784920465
-7.297566561865387        -9.124999999999973       0.7838361702120591
-3.2500000000000937       -12.5                    0.630301635151796
-3.3750000000000946       -12.297566561865388      0.6381764943976699
-3.0000000000000906       -12.5                    0.6160570129636691
-3.125000000000092        -12.297566561865388      0.6210354558872219
-7.5                      -8.749999999999972       0.7501079604128046
-7.297566561865387        -8.874999999999973       0.7645826390742326
-2.750000000000089        -12.5                    0.6067253311723851
-2.87500000000009         -12.297566561865388      0.6093371712421698
-2.5000000000000857       -12.5                    0.6012559361793117
-2.6250000000000875       -12.297566561865388      0.6026951651963032
-7.5                      -8.499999999999968       0.7199812673399061
-7.297566561865387        -8.624999999999972       0.7385867864769785
-2.2500000000000835       -12.5                    0.5981524700449079
-2.375000000000085        -12.297566561865388      0.5990215323530653
-2.0000000000000813       -12.5                    0.5962969901466845
-2.125000000000082        -12.297566561865388      0.5969521446920866
-7.5                      -8.249999999999964       0.6816197397676461
-7.297566561865386        -8.374999999999968       0.7047421725252402
-1.7500000000000786       -12.5                    0.5949629672780652
-1.8750000000000797       -12.297566561865388      0.595607187271152
-1.5000000000000764       -12.5                    0.5937339928308247
-1.6250000000000773       -12.297566561865388      0.5944473090376553
-7.5                      -7.9999999999999645      0.6364379621962788
-7.297566561865387        -8.124999999999964       0.6619417053994173
-1.2500000000000742       -12.5                    0.5924357051976774
-1.3750000000000753       -12.297566561865388      0.5932066577178569
-1.000000000000071        -12.5                    0.5910705953710761
-1.1250000000000724       -12.297566561865386      0.5918297046327083
-7.5                      -7.749999999999961       0.6053314339807055
-7.297566561865386        -7.874999999999962       0.6224506549132353
-0.7500000000000693       -12.5                    0.5897526154435299
-0.8750000000000702       -12.297566561865388      0.5904048970082441
-0.5000000000000662       -12.5                    0.5886450211640141
-0.6250000000000677       -12.297566561865388      0.5890984411032808
-7.5                      -7.49999999999996        0.5878777289770025
-7.297566561865387        -7.62499999999996        0.5993314245753476
-0.25000000000006395      -12.5                    0.5879063964145691
-0.3750000000000651       -12.297566561865388      0.5880939166458651
-6.128431095930864E-14    -12.5                    0.5876491383770431
-0.12500000000006262      -12.297566561865386      0.5875428482123443
-7.499999999999999        -7.249999999999957       0.5797414357025149
-7.297566561865387        -7.374999999999958       0.5875957368769907
0.2499999999999405        -12.5                    0.5879133967761688
0.1249999999999396        -12.297566561865388      0.5875299133906089
0.49999999999994316       -12.5                    0.5886581894976698
0.3749999999999419        -12.297566561865388      0.5880550507952059
-7.500000000000001        -6.999999999999956       0.5780365661437181
-7.297566561865387        -7.124999999999957       0.5835858988539578
0.7499999999999454        -12.5                    0.5897702817462895
0.6249999999999443        -12.297566561865388      0.5890335356616943
-7.5                      -6.749999999999954       0.58114395719249
-7.297566561865387        -6.8749999999999565      0.5851052379579026
0.9999999999999485        -12.5                    0.591090339834177
0.8749999999999468        -12.297566561865388      0.5903140399248478
1.2499999999999503        -12.5                    0.5924547257768533
1.1249999999999492        -12.297566561865388      0.5917136469178504
-7.5                      -6.49999999999995        0.5884046574472771
-7.297566561865387        -6.624999999999953       0.5911180224439015
1.4999999999999534        -12.5                    0.5937499857907342
1.374999999999952         -12.297566561865388      0.5930676000580123
1.7499999999999556        -12.5                    0.5949756758619401
1.6249999999999547        -12.297566561865388      0.5942901221516567
-7.5                      -6.249999999999947       0.599772473411549
-7.297566561865386        -6.3749999999999485      0.6014206797700946
1.9999999999999578        -12.5                    0.5963102366859703
1.8749999999999563        -12.297566561865388      0.5954410632966646
2.2499999999999605        -12.5                    0.5981758373619377
2.1249999999999587        -12.297566561865388      0.5967922172566175
-7.5                      -5.999999999999943       0.6154117134462013
-7.297566561865386        -6.124999999999945       0.6162618306913766
2.4999999999999627        -12.5                    0.6013047601821198
2.3749999999999614        -12.297566561865388      0.5988891332956086
2.749999999999965         -12.5                    0.6068183677980247
2.624999999999964         -12.297566561865388      0.602614993600539
-7.5                      -5.7499999999999405      0.6352266645086583
-7.297566561865386        -5.874999999999942       0.6358827321063144
2.999999999999968         -12.5                    0.6162129435425244
2.8749999999999667        -12.297566561865388      0.6093314829060174
3.24999999999997          -12.5                    0.6305351285021896
3.1249999999999694        -12.297566561865388      0.6211186817699762
-7.5                      -5.499999999999939       0.658363585329972
-7.297566561865386        -5.624999999999939       0.6599673160425068
3.499999999999973         -12.5                    0.6486425650185277
3.3749999999999716        -12.297566561865388      0.6383540927559285
3.749999999999975         -12.5                    0.6684525560253022
3.624999999999974         -12.297566561865388      0.6582059093608504
-7.5                      -5.249999999999936       0.6828233165738559
-7.297566561865387        -5.374999999999936       0.6870907213129246
3.999999999999977         -12.5                    0.6883637179998762
3.874999999999976         -12.297566561865388      0.6786552121748873
4.249999999999979         -12.5                    0.7073441420392591
4.124999999999978         -12.297566561865386      0.6984724422376822
-7.5                      -4.9999999999999325      0.705398092245165
-7.297566561865386        -5.124999999999933       0.7143832566812471
4.4999999999999805        -12.5                    0.7247679019627898
4.37499999999998          -12.297566561865388      0.7168940505449287
4.749999999999982         -12.5                    0.7402936992885453
4.6249999999999805        -12.297566561865388      0.7334798817329594
-7.5                      -4.749999999999929       0.7221149115216999
-7.297566561865386        -4.87499999999993        0.7376823090298257
4.999999999999984         -12.5                    0.75378191501737
4.875000237421131         -12.297566737232975      0.7480202231534373
5.249999999999984         -12.5                    0.765234666731863
5.1250387716186845        -12.29758730529595       0.7604710056996405
-7.5                      -4.499999999999925       0.7291791484468312
-7.297566561865386        -4.624999999999927       0.7523303470814459
5.499999999999988         -12.500000000000002      0.7747504673544426
5.375140754039187         -12.297690472667737      0.7709002390170828
5.749999999999988         -12.5                    0.7824889808899416
5.625303940062854         -12.29795251387332       0.7794497024824633
-7.5                      -4.249999999999923       0.7241291975735753
-7.297566561865386        -4.374999999999924       0.7544706544712944
5.99999999999999          -12.5                    0.7886432530922362
5.87549348520746          -12.298384645793568      0.7863057406111951
-7.5                      -3.999999999999921       0.7067213528716906
-7.297566561865386        -4.124999999999922       0.7423523955880461
6.249999999999991         -12.499999999999998      0.7934177365962323
6.125869195938994         -12.29876506245044       0.7916805762431758
6.499999999999993         -12.5                    0.7970109444160397
6.375780386089769         -12.299738749169684      0.7957689955443241
-7.5                      -3.7499999999999174      0.6791315367757794
-7.297566561865387        -3.8749999999999187      0.7170464371204416
6.749999999999995         -12.499999999999998      0.7996019194827856
6.626182432203677         -12.300205308903218      0.7987857888991986
6.9999999999999964        -12.5                    0.8013398172583722
6.875031779587783         -12.305878096783987      0.8008634858574232
-7.5                      -3.4999999999999147      0.6453795982251295
-7.297566561865386        -3.6249999999999165      0.6822202591151852
7.249999999999998         -12.5                    0.8023365699245676
7.122419833800932         -12.314273476995993      0.8021607418631277
7.5                       -12.5                    0.8026609168821648
7.3305490972724865        -12.337066163356116      0.8026981347459753
-7.5                      -3.249999999999911       0.6102665758095523
-7.297566561865386        -3.374999999999913       0.6430902057726001
7.5                       -12.250000000000274      0.8030533076632217
-7.5                      -2.9999999999999076      0.5783345379861093
-7.297566561865386        -3.1249999999999094      0.6050758207990546
7.5                       -12.00000000000027       0.8040621555212487
7.280325652561501         -12.121057339784308      0.8032709493707226
-7.5                      -2.749999999999906       0.5532942104612506
-7.297566561865387        -2.8749999999999063      0.5727816223282455
7.5                       -11.75000000000027       0.8056156231827796
7.296816727380562         -11.86049159324837       0.8047071096828468
-7.5                      -2.4999999999999023      0.5380963056045949
-7.297566561865387        -2.6249999999999036      0.5496931049573989
7.5                       -11.500000000000266      0.8075893993266133
7.296306782353468         -11.619847917324217      0.8064870332834372
-7.5                      -2.2499999999998987      0.5355632363135315
-7.297566561865386        -2.3749999999999005      0.5386014337996504
7.5                       -11.250000000000263      0.8098036194552697
7.296193798816024         -11.373053116493208      0.8086525598901878
-7.5                      -1.999999999999897       0.5486185121538214
-7.297566561865387        -2.124999999999898       0.5423782814560423
7.5                       -11.00000000000026       0.8120158278915325
7.296682635509787         -11.123081789632861      0.8109914848641618
-7.5                      -1.7499999999998934      0.5623574793617874
-7.297566561865386        -1.8749999999998952      0.5578279237918381
7.5                       -10.750000000000256      0.8139134326716576
7.297215456100137         -10.87373242639906       0.8131974124882465
-7.5                      -1.4999999999998899      0.5717041727731131
-7.297566561865386        -1.6249999999998916      0.5687175084809625
7.5                       -10.500000000000252      0.815105232418862
7.297469216309853         -10.624433076684706      0.8149306077728332
-7.5                      -1.249999999999888       0.5779185777667935
-7.297566561865386        -1.374999999999889       0.5759644267820133
7.5                       -10.250000000000252      0.8151123378605013
7.297544821625707         -10.374831736824646      0.8157647143690948
-7.5                      -0.9999999999998845      0.5819985201271626
-7.297566561865387        -1.124999999999886       0.5807408358974514
7.5                       -10.000000000000249      0.8133592111834717
7.297566561865386         -10.125000000000252      0.8151749853997093
-7.5                      -0.749999999999881       0.5846245135901753
-7.297566561865386        -0.8749999999998832      0.583847634549805
7.5                       -9.750000000000245       0.8091657168975485
7.297566561865387         -9.875000000000247       0.8125341814645717
-7.5                      -0.4999999999998792      0.5862389782534149
-7.297566561865387        -0.6249999999998802      0.5858128646746557
7.5                       -9.500000000000242       0.8017416948587313
7.297566561865387         -9.625000000000243       0.8071085689169585
-7.5                      -0.24999999999987566     0.587111345826198
-7.297566561865387        -0.3749999999998772      0.5869669301728875
7.5                       -9.250000000000238       0.7901868130988197
7.297566561865387         -9.37500000000024        0.7980513466457358
-7.5                      1.2789769243681803E-13   0.5873848296521544
-7.297566561865387        -0.12499999999987388     0.587499308199905
7.5                       -9.000000000000234       0.7735006420625171
7.297566561865387         -9.125000000000238       0.784404502896262
-7.5                      0.25000000000013145      0.587104195274598
-7.297566561865387        0.1250000000001294       0.5874956741329761
7.5                       -8.750000000000231       0.7506104161618984
7.297566561865387         -8.875000000000234       0.7651137949874983
-7.5                      0.5000000000001332       0.5862249483044057
-7.297566561865387        0.37500000000013234      0.5869561531272427
-7.5                      0.7500000000001368       0.5846041930178638
-7.297566561865387        0.6250000000001352       0.5857953429214993
7.5                       -8.500000000000231       0.7204226006376451
7.297566561865386         -8.625000000000231       0.7390671913461437
-7.5                      1.0000000000001403       0.5819729097356993
-7.297566561865387        0.8750000000001384       0.5838241090096422
-7.5                      1.250000000000142        0.5778892338444374
-7.297566561865386        1.1250000000001412       0.5807125090006803
7.5                       -8.250000000000227       0.6819780508336506
7.297566561865387         -8.375000000000227       0.7051534157406268
-7.5                      1.5000000000001457       0.5716733957616508
-7.297566561865386        1.3750000000001439       0.5759331321207127
7.5                       -8.000000000000224       0.6366896391189
7.297566561865386         -8.125000000000226       0.6622584113782483
-7.5                      1.7500000000001492       0.5623285301713956
-7.297566561865386        1.6250000000001474       0.5686859257031661
-7.5                      2.000000000000151        0.5485957447417857
-7.297566561865386        1.87500000000015         0.5577998202770855
7.5                       -7.75000000000022        0.6055008218424712
7.297566561865386         -7.875000000000222       0.622671823668692
-7.5                      2.2500000000001545       0.5355490077566992
-7.297566561865387        2.1250000000001528       0.5423583771626169
-7.5                      2.500000000000158        0.538086341791565
-7.297566561865387        2.3750000000001563       0.5385870902616895
7.5                       -7.500000000000217       0.5879868883289251
7.297566561865386         -7.6250000000002185      0.599485513100447
-7.5                      2.75000000000016         0.5532865839636284
-7.297566561865386        2.625000000000159        0.5496808876660887
-7.5                      3.0000000000001634       0.5783301118057975
-7.297566561865387        2.8750000000001616       0.5727709439818459
7.5                       -7.250000000000214       0.5798007077057783
7.297566561865386         -7.375000000000216       0.5876961523084491
-7.5                      3.250000000000167        0.6102690070666631
-7.297566561865387        3.1250000000001648       0.6050692241752978
-7.5                      3.5000000000001705       0.6453949086817287
-7.297566561865387        3.3750000000001683       0.6430932884894266
7.5                       -7.000000000000212       0.578050864711971
7.297566561865386         -7.125000000000213       0.5836372328387381
-7.5                      3.750000000000173        0.6791669797798598
-7.297566561865387        3.625000000000172        0.68224087943054
-7.5                      4.000000000000175        0.7067836330085155
-7.297566561865386        3.875000000000174        0.7170930128863029
7.5                       -6.75000000000021        0.5811175442714742
7.297566561865387         -6.875000000000212       0.5851106553694878
-7.5                      4.2500000000001785       0.7242225084943831
-7.297566561865387        4.125000000000177        0.7424316069893105
-7.5                      4.500000000000181        0.7293037276971034
-7.297566561865387        4.37500000000018         0.7545853050079346
7.5                       -6.500000000000206       0.5883428275640413
7.297566561865387         -6.625000000000209       0.5910821982286473
-7.5                      4.750000000000185        0.7222667105447101
-7.297566561865387        4.625000000000184        0.7524782285132788
-7.5                      5.000000000000188        0.7055697516243006
-7.297566561865387        4.875000000000187        0.737856591747744
7.5                       -6.2500000000002025      0.5996816651000982
7.297566561865386         -6.375000000000206       0.6013497368306672
-7.5                      5.250000000000192        0.68300608712434
-7.297566561865387        5.125000000000191        0.7145743118548086
7.5                       -6.000000000000199       0.6152995814391023
7.297566561865386         -6.125000000000202       0.61616297771219
-7.5                      5.500000000000193        0.6585494234496873
-7.297566561865387        5.375000000000196        0.6872886375669126
-7.5                      5.750000000000195        0.6354097169699618
-7.297566561865387        5.625000000000213        0.6601640871717741
7.5                       -5.750000000000195       0.6351025025832219
7.297566561865387         -5.875000000000198       0.635764556373351
-7.5                      6.000000000000199        0.6155887783845704
-7.297566561865383        5.8750000000002744       0.636073374213428
-7.5                      6.2500000000002025       0.5999424604266123
-7.297566561865373        6.12500000000052         0.6164442792375208
-7.5                      6.500000000000206        0.588567253790083
-7.297566561865314        6.375000000001497        0.6015947322582101
7.5                       -5.500000000000193       0.6582386750067404
7.297566561865387         -5.6250000000001945      0.6598404377405075
-7.5                      6.75000000000021         0.5812976037681435
-7.297566561865044        6.625000000005321        0.5912835827738401
7.5                       -5.250000000000192       0.682710458371299
7.297566561865387         -5.375000000000192       0.6869680158830286
-7.5                      7.000000000000212        0.5781757350425856
-7.29756656186382         6.875000000020015        0.5852598246395305
-7.5                      7.250000000000214        0.5798535405265598
-7.297566561858479        7.12500000007515         0.5837212710837497
7.5                       -5.000000000000188       0.7053097363070812
7.297566561865386         -5.12500000000019        0.7142787668155187
-7.5                      7.500000000000217        0.5879408985039855
-7.297566561836021        7.375000000276561        0.5876943095951493
-7.5                      7.75000000000022         0.6053145219645755
-7.297566561745046        7.62500000099089         0.5993648319776596
7.5                       -4.750000000000185       0.7220600356654829
7.297566561865386         -4.8750000000001865      0.7376084182419098
-7.5                      8.000000000000224        0.6363021137621591
-7.297566561390414        7.875000003443098        0.6223819723366965
-7.5                      8.250000000000227        0.6813283957156053
-7.297566560062822        8.12500001156533         0.6617284648270351
7.5                       -4.500000000000181       0.7291601148246937
7.297566561865386         -4.625000000000183       0.75229390940479
-7.5                      8.500000000000231        0.719540215178108
-7.297566555300502        8.375000037439227        0.7043693878924219
-7.5                      8.750000000000231        0.7495354442661274
-7.297566538969229        8.625000116486815        0.7380700858208935
7.5                       -4.2500000000001785      0.7241404533869128
7.297566561865386         -4.37500000000018        0.7544700299398722
-7.5                      9.000000000000234        0.7722734291063237
-7.2975664855457785       8.875000347700917        0.7639446454741542
-7.5                      9.250000000000238        0.7888464483397493
-7.2975663191367355       9.125000995717803        0.7831034779789575
7.5                       -4.000000000000175       0.7067511862377697
7.297566561865386         -4.125000000000177       0.74237753012541
-7.5                      9.500000000000242        0.8003251845286292
-7.297565826453351        9.375002745899819        0.7966568375059372
7.5                       -3.750000000000173       0.6791663049325992
7.297566561865386         -3.875000000000174       0.7170825528601146
-7.5                      9.750000000000245        0.8077073864453931
-7.297564445934001        9.625007366912554        0.8056565035755613
-7.5                      10.000000000000249       0.8118902826903631
-7.297560845577814        9.875019628358361        0.8110575150481311
-7.5                      10.250000000000252       0.8136606556863143
-7.29755275641692         10.12505376553656        0.813703281163035
7.5                       -3.5000000000001705      0.6454082608525807
7.297566561865387         -3.625000000000172       0.6822533481674878
-7.5                      10.500000000000252       0.8136951300673995
-7.29754470077156         10.375158554811502       0.8143233521013381
-7.5                      10.750000000000256       0.8125657400680314
-7.297237570905973        10.625280909610913       0.8135391857209119
7.5                       -3.250000000000167       0.6102833336877804
7.297566561865387         -3.3750000000001683      0.6431113628228523
-7.5                      11.00000000000026        0.8107479901571836
-7.2966371414771585       10.875912751842193       0.8118658806745577
7.5                       -3.0000000000001634      0.578338847242008
7.297566561865387         -3.1250000000001648      0.6050825195856562
-7.5                      11.250000000000263       0.8086299335982701
-7.295157557425831        11.127927074417856       0.8097215674362598
-7.5                      11.500000000000266       0.8065214031114863
-7.294713616206049        11.383188153296214       0.8074364444367017
7.5                       -2.75000000000016        0.553289077237353
7.297566561865387         -2.8750000000001616      0.572776250933646
-7.5                      11.75000000000027        0.8046622286729012
-7.294986985216372        11.6282895955173         0.8054040109091547
-7.5                      12.00000000000027        0.8032299864459329
-7.298401164683329        11.865385604953795       0.8037777900323401
7.5                       -2.500000000000158       0.5380863851661531
7.297566561865387         -2.625000000000159       0.5496805101216758
-7.5                      12.250000000000274       0.8023473399721116
-7.275397475493655        12.122115101058567       0.8024834104820283
-7.5                      12.5                     0.8020844446895331
-7.328022341935029        12.339061833572377       0.8020289908144009
7.5                       -2.2500000000001545      0.5355538452653706
7.297566561865387         -2.3750000000001563      0.5385871313790055
-7.249999999999998        12.5                     0.8017591468221844
7.5                       -2.000000000000151       0.5486159701246366
7.297566561865387         -2.125000000000153       0.5423680972062278
-6.9999999999999964       12.5                     0.800759602226169
-7.114714234181489        12.323194066803039       0.8014379520088676
7.5                       -1.7500000000001492      0.5623700751439188
7.297566561865386         -1.87500000000015        0.5578293173512984
-6.749999999999995        12.499999999999998       0.7990172912891795
-6.877989465427923        12.305337452555392       0.800198637299057
7.5                       -1.5000000000001457      0.5717385401694415
7.297566561865386         -1.6250000000001474      0.5687386132067146
-6.499999999999993        12.5                     0.7964206442851268
-6.630349326992596        12.29943190649118        0.7981329095811595
7.5                       -1.250000000000142       0.57797847671118
7.297566561865386         -1.3750000000001439      0.5760105316551661
-6.249999999999991        12.499999999999998       0.7928210790592022
-6.3798465501165795       12.298398915302291       0.795123494695158
7.5                       -1.0000000000001403      0.5820848222334646
7.297566561865386         -1.1250000000001412      0.5808141737578466
-5.99999999999999         12.5                     0.7880403496616313
-6.12874173189573         12.29854644695986        0.791017309632244
7.5                       -0.7500000000001368      0.5847354882539806
7.297566561865387         -0.8750000000001384      0.5839476003483465