% Model:              u5.mph
% Version:            COMSOL 5.4.0.225
% Date:               Feb 1 2019, 13:33
% Dimension:          2
% Nodes:              7634
% Expressions:        1
% Description:        Dependent variable u
% Length unit:        m
% x                       y                        u (1) @ t=500
-7.5                      -12.5                    1.2525820732334876
-7.250000000000037        -12.5                    1.2537238712374392
-7.3374671407145495       -12.329651574550818      1.2516853460572623
-7.5                      -12.25                   1.2503099695282336
-7.000000000000037        -12.5                    1.2571505282086537
-7.121656495313863        -12.277385675228883      1.2530000339816054
-7.5                      -12                      1.246255637904294
-7.315679208258853        -12.120872197525207      1.248936777370034
-6.7500000000000355       -12.5                    1.2628612718863996
-6.861097408456697        -12.29846010222184       1.2576617243830723
-7.499999999999999        -11.75                   1.2406735661967951
-7.305678822690329        -11.878019377582177      1.2442063100264467
-6.5000000000000355       -12.5                    1.2708507330080967
-6.618706031167112        -12.297578238322714      1.2637303350018063
-7.499999999999999        -11.5                    1.2338062948833144
-7.300979653050327        -11.627549771137687      1.2379047129362382
-6.250000000000034        -12.5                    1.2810979282414576
-6.373008022997354        -12.296731258736017      1.2718139253492213
-7.5                      -11.25                   1.2258812881974472
-7.299892167058572        -11.376802265717481      1.2304026165340376
-6.000000000000034        -12.5                    1.293554156908113
-6.123449325377528        -12.296850069424762      1.2819859026439888
-7.500000000000001        -11                      1.2171098048332325
-7.299236716007024        -11.126397090926773      1.221957546457354
-5.750000000000032        -12.5                    1.308125177353449
-5.873812060372788        -12.297197084503546      1.2940379320447137
-7.5                      -10.75                   1.207687113402299
-7.298782900589671        -10.876065443261353      1.212768301612498
-5.500000000000032        -12.5                    1.3246491035700707
-5.624432920877358        -12.297449799498926      1.3078001878312364
-7.5                      -10.5                    1.197793690353123
-7.298297253205412        -10.625679442540251      1.203019269826101
-5.250000000000032        -12.5                    1.3428709385159483
-5.37477889619392         -12.29753910796238       1.3230833822652623
-7.5                      -10.25                   1.1875970285731388
-7.297926680647983        -10.375393351215616      1.1928901734810184
-5.00000000000003         -12.5                    1.362416018968694
-5.125000000000029        -12.297566561865388      1.3395819070231836
-7.5                      -10                      1.1772538458360498
-7.297710866788179        -10.12518732506054       1.182542357024939
-4.75000000000003         -12.5                    1.3827669810356928
-4.875000000000029        -12.297566561865388      1.3568990860141168
-7.5                      -9.75                    1.1669125310395465
-7.297604477248478        -9.875068211773158       1.1721283229402077
-4.500000000000028        -12.5                    1.403252321208414
-4.625000000000028        -12.297566561865388      1.3745045112214662
-4.250000000000028        -12.5                    1.4230575552371816
-4.375000000000028        -12.297566561865388      1.3917762521527717
-7.499999999999999        -9.5                     1.15671571424168
-7.297571022746962        -9.625016759688622       1.1617919947360311
-4.000000000000027        -12.5                    1.4412711366628337
-4.1250000000000275       -12.297566561865388      1.4080165095146573
-3.7500000000000266       -12.5                    1.4569726439463648
-3.875000000000027        -12.297566561865388      1.4225060404589962
-7.5                      -9.250000000000002       1.1468028841415958
-7.29756685930099         -9.375001316853307       1.1516720476715658
-3.500000000000026        -12.5                    1.4693572842862714
-3.6250000000000266       -12.297566561865388      1.4345826692373678
-7.500000000000001        -9.000000000000002       1.1373129995615072
-7.297566561865388        -9.125                   1.141905626909448
-3.250000000000025        -12.5                    1.4778701455137098
-3.375000000000026        -12.297566561865388      1.4437313705859207
-3.0000000000000244       -12.5                    1.4823074216426733
-3.125000000000025        -12.297566561865388      1.4496634350144715
-7.500000000000001        -8.750000000000002       1.128387053050787
-7.297566561865388        -8.875                   1.132631045981398
-2.750000000000023        -12.5                    1.4828461541191527
-2.8750000000000244       -12.297566561865388      1.4523601240761843
-2.500000000000023        -12.5                    1.4799925611677887
-2.6250000000000235       -12.297566561865388      1.452066487209082
-7.5                      -8.500000000000002       1.1201705434310476
-7.297566561865388        -8.625                   1.1239904177200097
-2.2500000000000218       -12.5                    1.4744733967479304
-2.3750000000000226       -12.297566561865388      1.4492392843705701
-2.0000000000000213       -12.5                    1.4671114622164458
-2.1250000000000218       -12.297566561865388      1.4444682393285933
-7.5                      -8.25                    1.1128158014024618
-7.297566561865388        -8.375                   1.1161316590039652
-1.7500000000000209       -12.5                    1.4587197145929427
-1.875000000000021        -12.297566561865388      1.4383941155985571
-1.5000000000000195       -12.5                    1.450030262577113
-1.6250000000000204       -12.297566561865388      1.43164114506064
-7.5                      -8                       1.1064840882756457
-7.297566561865388        -8.125                   1.1092106935698018
-1.250000000000019        -12.5                    1.4416583872488562
-1.3750000000000195       -12.297566561865388      1.4247714543832402
-1.0000000000000178       -12.5                    1.4340931644004404
-1.1250000000000184       -12.297566561865388      1.4182609245465
-7.5                      -7.75                    1.1013473509865175
-7.297566561865388        -7.875                   1.1033934417880629
-0.7500000000000178       -12.5                    1.4277043191585985
-0.8750000000000177       -12.297566561865388      1.4124915082306033
-0.5000000000000164       -12.5                    1.4227565358689638
-0.625000000000017        -12.297566561865388      1.4077538988573435
-7.5                      -7.5                     1.0975894659715977
-7.297566561865388        -7.625                   1.098857409197896
-0.250000000000016        -12.5                    1.419425088673327
-0.37500000000001626      -12.297566561865388      1.4042551860260135
-1.509903313490213E-14    -12.5                    1.4178090507467298
-0.12500000000001554      -12.297566561865388      1.402127541649626
-7.500000000000001        -7.25                    1.095406738990721
-7.297566561865389        -7.375                   1.0957926806031237
0.2499999999999858        -12.5                    1.417940063884602
0.12499999999998535       -12.297566561865388      1.401435369555279
0.4999999999999867        -12.5                    1.419785744130009
0.37499999999998623       -12.297566561865388      1.4021794575860957
-7.500000000000001        -7                       1.0950073471967512
-7.297566561865389        -7.125                   1.0944020532939016
0.7499999999999876        -12.5                    1.4232474806437008
0.624999999999987         -12.297566561865388      1.4042974901071295
-7.500000000000001        -6.75                    1.0966093152314966
-7.297566561865388        -6.875                   1.0948999539721072
0.999999999999988         -12.5                    1.4281529182394614
0.8749999999999879        -12.297566561865388      1.4076609264289022
1.2499999999999893        -12.5                    1.4342440670894172
1.1249999999999887        -12.297566561865388      1.4120688864643183
-7.5                      -6.5                     1.100436514398986
-7.297566561865388        -6.625                   1.0975096816368912
1.4999999999999893        -12.5                    1.4411630140686322
1.3749999999999893        -12.297566561865388      1.4172404673485692
1.7499999999999907        -12.5                    1.4484388276982572
1.6249999999999896        -12.297566561865388      1.4228079584301
-7.5                      -6.249999999999999       1.1067120756796403
-7.297566561865388        -6.375                   1.1024584103838677
1.9999999999999911        -12.5                    1.4554814906114633
1.8749999999999905        -12.297566561865388      1.428314724886308
2.2499999999999925        -12.5                    1.4615911665839072
2.1249999999999916        -12.297566561865388      1.4332228480174258
-7.5                      -5.999999999999999       1.1156485378491934
-7.297566561865388        -6.125                   1.1099692878702354
2.499999999999993         -12.5                    1.4659925918866488
2.3749999999999925        -12.297566561865388      1.4369362949998472
2.7499999999999933        -12.5                    1.467902530278583
2.624999999999993         -12.297566561865388      1.4388443101151538
-7.5                      -5.749999999999999       1.127434053145957
-7.297566561865388        -5.875                   1.1202499073428773
2.9999999999999947        -12.5                    1.4666301414003495
2.8749999999999933        -12.297566561865388      1.4383855454244472
3.2499999999999947        -12.5                    1.4616948428568408
3.1249999999999933        -12.297566561865388      1.435125687388563
-7.5                      -5.499999999999999       1.1422141100535332
-7.297566561865388        -5.625                   1.133476464807212
3.499999999999996         -12.5                    1.4529290748153307
3.3749999999999947        -12.297566561865388      1.428831989665376
3.7499999999999964        -12.5                    1.4405270527504597
3.624999999999995         -12.297566561865388      1.4195224840778649
-7.5                      -5.249999999999998       1.160068596690837
-7.297566561865388        -5.375                   1.1497731166114444
3.9999999999999973        -12.5                    1.4250163809203948
3.8749999999999964        -12.297566561865388      1.4074716813910815
4.249999999999998         -12.5                    1.4071619292250555
4.124999999999997         -12.297566561865388      1.3931690370163945
-7.500000000000001        -4.999999999999998       1.1809847267393727
-7.297566561865388        -5.125                   1.1691865332986104
4.499999999999997         -12.5                    1.387838386434525
4.374999999999998         -12.297566561865388      1.3772437548289862
4.749999999999998         -12.5                    1.367912012495968
4.624999999999999         -12.297566561865388      1.3603792261618775
-7.5                      -4.749999999999998       1.2048274758678605
-7.297566561865388        -4.875                   1.1916565245044912
4.999999999999998         -12.5                    1.3481567932039737
4.8750002374211485        -12.297566737232975      1.3432384249095983
5.249999999999998         -12.5                    1.32921071470292
5.125038771618699         -12.29758730529595       1.326410878758839
-7.5                      -4.499999999999998       1.2313107409556239
-7.297566561865388        -4.624999999999999       1.2169849792610818
5.499999999999998         -12.5                    1.3115650632891325
5.3751407540392           -12.29769047266774       1.3103896286249845
5.75                      -12.5                    1.2955752612383866
5.62530394006286          -12.297952513873353      1.2955627306203625
-7.5                      -4.249999999999998       1.2599742571192283
-7.297566561865388        -4.374999999999999       1.2448071993650653
5.999999999999999         -12.499999999999998      1.2814827115459393
5.87549348520752          -12.298384645793815      1.282217579111098
-7.5                      -3.9999999999999964      1.29017289722059
-7.297566561865388        -4.124999999999999       1.2745717160167642
6.25                      -12.5                    1.2694402255365165
6.125869195939302         -12.298765062451254      1.270543180918297
6.5                       -12.5                    1.2595363676880622
6.375780386092047         -12.29973874917467       1.2607189158597534
-7.5                      -3.7499999999999964      1.3210854896648045
-7.297566561865388        -3.8749999999999987      1.3055361893010884
6.75                      -12.5                    1.2518164466197
6.626182432210402         -12.300205308922132      1.2527700239138004
7                         -12.5                    1.2462989091218222
6.87503177961564          -12.305878096790394      1.246880719752529
-7.5                      -3.4999999999999973      1.3517487127467331
-7.297566561865388        -3.624999999999998       1.3367869087042017
7.25                      -12.5                    1.24298874252128
7.122419833832843         -12.314273476999253      1.2429826753078241
7.5                       -12.5                    1.2418855659025523
7.330549097287276         -12.337066163358275      1.2413514437164856
-7.500000000000001        -3.2499999999999964      1.3811173233380931
-7.297566561865388        -3.374999999999998       1.3672865883972276
7.5                       -12.250000000000018      1.2400249909675087
-7.500000000000001        -2.9999999999999964      1.4081454441048546
-7.297566561865388        -3.1249999999999964      1.395949169161707
7.5                       -12.000000000000018      1.236438831665097
7.280325652603539         -12.121057339792108      1.2390821719149405
-7.5                      -2.7499999999999956      1.431876871403726
-7.297566561865388        -2.8749999999999964      1.4217324449057787
7.5                       -11.750000000000014      1.231371109297099
7.296816727387784         -11.860491593320134      1.2343004991436615
-7.5                      -2.4999999999999956      1.451528263952226
-7.297566561865388        -2.6249999999999964      1.4437325485681747
7.5                       -11.500000000000014      1.225057345624486
7.2963067823546695        -11.619847917335983      1.2286781864880183
-7.5                      -2.2499999999999956      1.4665497997465025
-7.297566561865388        -2.3749999999999964      1.4612620494083488
7.5                       -11.250000000000014      1.217718226965929
7.296193798816304         -11.373053116495509      1.2218292849664005
-7.5                      -1.9999999999999956      1.4766534416399157
-7.297566561865388        -2.1249999999999964      1.473897152212518
7.5                       -11.000000000000014      1.2095593944546719
7.296682635510101         -11.123081789633817      1.2139828796282932
-7.5                      -1.7499999999999956      1.4818070815885687
-7.297566561865388        -1.8749999999999962      1.481487749959447
7.5                       -10.750000000000014      1.2007716399767492
7.297215456100371         -10.87373242639923       1.2054426839064607
-7.5                      -1.4999999999999956      1.48220040119169
-7.297566561865388        -1.6249999999999958      1.4841333334912623
7.5                       -10.500000000000014      1.191531969628829
7.297469216310009         -10.624433076684582      1.1963744428943082
-7.5                      -1.2499999999999956      1.4781929252799053
-7.297566561865388        -1.3749999999999953      1.4821345978185754
7.5                       -10.250000000000014      1.182005313244325
7.29754482162578          -10.374831736824435      1.186932902992887
-7.500000000000001        -0.9999999999999947      1.4702557311004056
-7.297566561865388        -1.124999999999995       1.475933325826788
7.5                       -10.000000000000014      1.1723466421180844
7.297566561865388         -10.125000000000014      1.1772775649390732
-7.5                      -0.7499999999999938      1.458916350647118
-7.297566561865388        -0.8749999999999943      1.4660520691962298
7.5                       -9.750000000000014       1.1627033205626267
7.297566561865388         -9.875000000000014       1.1675601464396441
-7.5                      -0.4999999999999938      1.4447130099517926
-7.297566561865388        -0.6249999999999941      1.453041780349596
7.5                       -9.500000000000014       1.1532175770040165
7.297566561865388         -9.625000000000014       1.15793073717688
-7.5                      -0.24999999999999378     1.4281608569768516
-7.297566561865388        -0.37499999999999406     1.4374415754199272
7.5                       -9.250000000000014       1.1440290234419317
7.297566561865388         -9.375000000000014       1.1485291244667601
-7.5                      5.329070518200751E-15    1.4097301053686602
-7.297566561865388        -0.12499999999999427     1.419751445958063
7.5                       -9.000000000000014       1.1352771671114692
7.297566561865388         -9.125000000000014       1.1394937505419076
-7.5                      0.25000000000000533      1.3898343654727843
-7.297566561865388        0.12500000000000552      1.4004165264429635
7.5                       -8.750000000000014       1.1271038688523938
7.297566561865388         -8.875000000000014       1.1309642172776753
-7.5                      0.5000000000000053       1.368826744497741
-7.297566561865388        0.3750000000000056       1.3798204628074149
-7.5                      0.7500000000000071       1.347001286979389
-7.297566561865388        0.6250000000000062       1.3582852251823294
7.5                       -8.500000000000014       1.1196556997038867
7.297566561865388         -8.625000000000014       1.1230837175452386
-7.5                      1.000000000000007        1.324597689212255
-7.297566561865388        0.8750000000000068       1.3360750119000169
-7.5                      1.250000000000007        1.3018077203116538
-7.297566561865388        1.1250000000000069       1.3134024089484246
7.5                       -8.250000000000014       1.113086133251483
7.297566561865388         -8.375000000000014       1.1160013425109743
-7.5                      1.500000000000007        1.2787822716193302
-7.297566561865388        1.375000000000007        1.2904355094797724
7.5                       -8.000000000000014       1.1075574854479284
7.297566561865388         -8.125000000000014       1.1098741949843687
-7.5                      1.750000000000007        1.2556383650210752
-7.297566561865388        1.625000000000007        1.267305164373339
-7.5                      2.000000000000007        1.232465759826611
-7.297566561865388        1.875000000000007        1.2441118942823899
7.5                       -7.750000000000013       1.1032424752705092
7.297566561865388         -7.875000000000014       1.104869207279532
-7.5                      2.250000000000007        1.2093330149512995
-7.297566561865388        2.125000000000007        1.2209322492819503
-7.5                      2.500000000000007        1.186293007080807
-7.297566561865388        2.375000000000007        1.1978245731404218
7.5                       -7.5000000000000115      1.1003252275999107
7.297566561865388         -7.625000000000014       1.1011645173712978
-7.5                      2.750000000000007        1.1633879967736
-7.297566561865388        2.625000000000007        1.1748342379340533
-7.5                      3.000000000000009        1.1406543906708904
-7.297566561865388        2.875000000000007        1.1519984814415822
7.5                       -7.2500000000000115      1.0990014732947553
7.297566561865388         -7.375000000000014       1.098950198182318
-7.5                      3.250000000000009        1.1181273822151272
-7.297566561865388        3.125000000000007        1.1293510201669223
-7.5                      3.500000000000008        1.0958456736380733
-7.297566561865388        3.3750000000000075       1.1069266356029124
7.5                       -7.000000000000011       1.0994776207970725
7.297566561865388         -7.125000000000014       1.0984280608671215
-7.5                      3.750000000000008        1.0738564913088942
-7.297566561865388        3.6250000000000075       1.084765946158648
-7.5                      4.00000000000001         1.052221101452656
-7.297566561865388        3.8750000000000075       1.0629205824075585
7.5                       -6.750000000000011       1.101968281321063
7.297566561865388         -6.875000000000014       1.0998101645868024
-7.5                      4.25000000000001         1.0310210020155588
-7.297566561865388        4.125000000000009        1.0414589727083248
-7.5                      4.500000000000011        1.0103648853792109
-7.297566561865388        4.37500000000001         1.0204729040340599
7.5                       -6.500000000000011       1.106691732900774
7.297566561865388         -6.625000000000014       1.1033155661489757
-7.5                      4.750000000000011        0.9903962958716321
-7.297566561865388        4.6250000000000115       1.0000849191164873
-7.5                      5.000000000000011        0.9713015885280192
-7.297566561865388        4.875000000000012        0.9804563963735905
7.5                       -6.250000000000011       1.1138627223238973
7.297566561865388         -6.375000000000013       1.1091647423212991
-7.5                      5.250000000000011        0.9533172697480384
-7.297566561865389        5.125000000000013        0.9617957635069506
7.5                       -6.000000000000011       1.1236819557395474
7.297566561865388         -6.125000000000013       1.117571034497386
-7.5                      5.500000000000011        0.9367350481790732
-7.297566561865388        5.375000000000017        0.9443656462254791
-7.5                      5.750000000000011        0.9219020785046258
-7.297566561865387        5.625000000000031        0.9284868424801235
7.5                       -5.750000000000011       1.1363216638865323
7.297566561865388         -5.875000000000013       1.1287284335732657
-7.5                      6.000000000000011        0.9092133760088125
-7.297566561865384        5.87500000000009         0.914536053840986
-7.5                      6.250000000000011        0.8990939769285916
-7.297566561865373        6.125000000000333        0.9029339472538157
-7.5                      6.500000000000011        0.891970769289912
-7.297566561865314        6.375000000001305        0.8941214211780225
7.5                       -5.500000000000011       1.1519068143196434
7.297566561865388         -5.625000000000013       1.1427950974507413
-7.5                      6.750000000000011        0.8882375712787726
-7.297566561865044        6.625000000005127        0.8885255482451025
7.5                       -5.250000000000011       1.1704919705710086
7.297566561865388         -5.375000000000013       1.1598722554544294
-7.5                      7.000000000000011        0.888219880825113
-7.29756656186382         6.875000000019817        0.8865212173785367
-7.5                      7.2500000000000115       0.8921454234750691
-7.29756656185848         7.125000000074949        0.8883965419651599
7.5                       -5.000000000000011       1.192034565247923
7.297566561865388         -5.125000000000012       1.1799787074651171
-7.5                      7.5000000000000115       0.9001232516273104
-7.297566561836024        7.375000000276358        0.8943274266958795
-7.5                      7.750000000000013        0.9121304519327665
-7.297566561745047        7.625000000990684        0.9043615462792346
7.5                       -4.750000000000011       1.2163665296911286
7.297566561865388         -4.8750000000000115      1.203022078635971
-7.5                      8.000000000000014        0.9280041189643299
-7.2975665613904175       7.875000003442889        0.918408701261512
-7.5                      8.250000000000014        0.9474374666826711
-7.2975665600628234       8.125000011565119        0.9362348580155112
7.5                       -4.500000000000011       1.2431677738896998
7.297566561865388         -4.625000000000011       1.2287694030266432
-7.5                      8.500000000000014        0.969981316571904
-7.297566555300503        8.375000037439014        0.9574598368652004
-7.5                      8.750000000000014        0.9950539762247937
-7.297566538969233        8.625000116486598        0.9815613969507441
7.5                       -4.25000000000001        1.2719466968268205
7.297566561865388         -4.37500000000001        1.2568213976770386
-7.5                      9.000000000000014        1.0219625269520392
-7.297566485545779        8.875000347700698        1.007889711083848
-7.5                      9.250000000000014        1.0499365092588946
-7.2975663191367355       9.12500099571758         1.0356950957960984
7.5                       -4.00000000000001        1.3020341855600095
7.297566561865388         -4.125000000000009       1.286596594723752
-7.5                      9.500000000000014        1.078171713635567
-7.297565826453352        9.375002745899595        1.0641686203868
7.5                       -3.750000000000008       1.3325975935165235
7.297566561865388         -3.8750000000000075      1.3173325879504618
-7.5                      9.750000000000014        1.1058787544688606
-7.297564445934005        9.625007366912326        1.0924913145995825
-7.5                      10.000000000000014       1.132329683185338
-7.2975608455778165       9.87501962835813         1.1198850547595354
-7.5                      10.250000000000014       1.1568965051134952
-7.2975527564169225       10.125053765536325       1.1456580384995076
7.5                       -3.500000000000008       1.3626790972542333
7.297566561865388         -3.6250000000000075      1.3481109769671058
-7.5                      10.500000000000014       1.1790775469266508
-7.297544700771562        10.375158554811264       1.1692401109324333
-7.5                      10.750000000000014       1.1985102144230266
-7.297237570906325        10.625280909610685       1.1901927245360262
7.5                       -3.250000000000009       1.3912582541184702
7.297566561865388         -3.3750000000000075      1.3779092224324492
-7.5                      11.000000000000014       1.2149709583647987
-7.296637141477152        10.875912751841952       1.208257435918231
7.5                       -3.000000000000009       1.4173323062290377
7.297566561865388         -3.125000000000007       1.4056765191579794
-7.5                      11.250000000000014       1.228364885117047
-7.295157557425814        11.12792707441762        1.22331531924722
-7.5                      11.500000000000014       1.2387082162803538
-7.294713616206047        11.383188153295961       1.235339680556634
7.5                       -2.750000000000007       1.440001885526143
7.297566561865388         -2.875000000000007       1.4304235074251943
-7.5                      11.750000000000014       1.2461069344403142
-7.294986985216417        11.62828959551707        1.2439034751334257
-7.5                      12.000000000000018       1.2507342937271306
-7.2984011646841855       11.865385604953703       1.2495203147446448
7.5                       -2.500000000000007       1.4585468545212728
7.297566561865388         -2.625000000000007       1.451310117216426
-7.5                      12.250000000000018       1.2528109154766127
-7.275397475498109        12.122115101058466       1.253129729442664
-7.5                      12.5                     1.2525820732334876
-7.328022341935925        12.339061833572298       1.253559894010125
7.5                       -2.250000000000007       1.4724786687816422
7.297566561865388         -2.375000000000007       1.4677148894134466
-7.25                     12.5                     1.253723871237439
7.5                       -2.000000000000007       1.481561410884317
7.297566561865388         -2.125000000000007       1.4792735535561876
-7                        12.5                     1.2571505282086535
-7.114714234181513        12.323194066803016       1.2559024779534183
7.5                       -1.750000000000007       1.4858012328356638
7.297566561865388         -1.875000000000007       1.48588264482457
-6.75                     12.5                     1.2628612718863994
-6.877989465428228        12.305337452555117       1.2606564456758476
7.5                       -1.500000000000007       1.485410563629238
7.297566561865388         -1.625000000000007       1.4876722311823827
-6.5                      12.5                     1.2708507330080967
-6.6303493269929845       12.299431906490378       1.2680670206050924
7.5                       -1.250000000000007       1.4807571837975508
7.297566561865388         -1.375000000000007       1.484957541916563
-6.25                     12.5                     1.2810979282414574
-6.379846550116931        12.298398915301492       1.2780900858070512
7.5                       -1.000000000000007       1.4723087215462902