% Model:              U5_backwards_compatible_without_2.mph
% Version:            COMSOL 5.1.0.234
% Date:               Sep 5 2022, 10:36
% Dimension:          2
% Nodes:              7634
% Expressions:        1
% Description:        Dependent variable u
% Length unit:        m
% x                       y                        u (1) @ t=1000
-7.5                      -12.5                    1.2528820466739237
-7.250000000000133        -12.5                    1.252994193517847
-7.337467140714745        -12.329651574551194      1.2343426493000995
-7.499999999999999        -12.249999999999996      1.2256003876943937
-7.00000000000013         -12.5                    1.2533205258433615
-7.121656495314211        -12.277385675229983      1.2287715455385548
-7.5                      -11.999999999999996      1.1982216210867938
-7.315679208259377        -12.12087219752599       1.2114984203930224
-6.750000000000128        -12.5                    1.2538307085460259
-6.861097408457507        -12.298460102229008      1.2314039079180423
-7.5                      -11.749999999999993      1.1708069808367558
-7.305678822689975        -11.878019377584284      1.18486461706999
-6.500000000000124        -12.5                    1.2544748770260874
-6.618706031168089        -12.297578238319844      1.2317167211954085
-7.500000000000001        -11.499999999999993      1.1434093185945924
-7.300979653050844        -11.62754977113695       1.157384777637162
-6.250000000000123        -12.5                    1.2551845129385744
-6.3730080229996915       -12.296731258729514      1.2321041613252992
-7.5                      -11.24999999999999       1.1160793974629646
-7.299892167059557        -11.376802265715625      1.1299149551019287
-6.000000000000121        -12.5                    1.2558743519302356
-6.123449325378588        -12.296850069422781      1.2326191072635995
-7.5                      -10.99999999999999       1.0888722592355569
-7.299236716008845        -11.126397090925856      1.1025741870249652
-5.750000000000117        -12.5                    1.2564450105737102
-5.873812060373251        -12.297197084502967      1.2331049000477179
-7.5                      -10.749999999999986      1.0618538045992534
-7.298782900599218        -10.876065443257303      1.0753906426572977
-5.5000000000001155       -12.5                    1.2567868115361271
-5.624432920877559        -12.297449799498764      1.2334469864710604
-7.499999999999999        -10.499999999999986      1.0351076688990593
-7.29829725322039         -10.625679442536171      1.048422147446173
-5.250000000000114        -12.5                    1.2567847556183487
-5.374778896194034        -12.297539107962342      1.233553734848938
-7.5                      -10.249999999999984      1.0087423449752015
-7.297926680657121        -10.375393351214836      1.0217784037036368
-5.00000000000011         -12.5                    1.256324457021588
-5.125000000000111        -12.297566561865388      1.2333492134927904
-7.5                      -9.999999999999982       0.9828983165635498
-7.297710866790436        -10.125187325060487      0.9955786679547295
-4.750000000000108        -12.5                    1.2552987017837653
-4.8750000000001075       -12.297566561865388      1.2327513290079455
-7.500000000000001        -9.74999999999998        0.9577546649322474
-7.297604477248478        -9.875068211773142       0.9699805405009679
-4.500000000000105        -12.5                    1.253614006219299
-4.625000000000106        -12.297566561865386      1.2316840908967392
-4.250000000000103        -12.5                    1.2511964577228338
-4.375000000000106        -12.297566561865388      1.2300788857500666
-7.5                      -9.499999999999979       0.9335341542339443
-7.297571022746962        -9.625016759688604       0.9451808572411163
-4.000000000000101        -12.5                    1.247996084903459
-4.125000000000103        -12.297566561865388      1.2278813804665678
-3.7500000000000977       -12.5                    1.2439891830445813
-3.8750000000001          -12.297566561865386      1.2250541643159936
-7.5                      -9.249999999999975       0.9105052244060808
-7.29756685930099         -9.37500131685328        0.9214216940599816
-3.500000000000096        -12.5                    1.2391783017130438
-3.6250000000000973       -12.297566561865388      1.2215780061879462
-7.5                      -8.999999999999975       0.8889786521766453
-7.297566561865387        -9.124999999999973       0.8989932825113067
-3.2500000000000937       -12.5                    1.2335899618681339
-3.3750000000000946       -12.297566561865388      1.2174515978972404
-3.0000000000000906       -12.5                    1.2272705174041096
-3.125000000000092        -12.297566561865388      1.212689869661056
-7.5                      -8.749999999999972       0.8692960744195707
-7.297566561865387        -8.874999999999973       0.8782279608023574
-2.750000000000089        -12.5                    1.220280814435616
-2.87500000000009         -12.297566561865388      1.2073211555494305
-2.5000000000000857       -12.5                    1.2126903945008187
-2.6250000000000875       -12.297566561865388      1.2013836164779177
-7.5                      -8.499999999999968       0.8518075132307853
-7.297566561865387        -8.624999999999972       0.859484427469518
-2.2500000000000835       -12.5                    1.2045719325507283
-2.375000000000085        -12.297566561865388      1.194921376338183
-2.0000000000000813       -12.5                    1.1959964384130213
-2.125000000000082        -12.297566561865388      1.1879807959491615
-7.5                      -8.249999999999964       0.8368362222628857
-7.297566561865386        -8.374999999999968       0.8431181890349603
-1.7500000000000786       -12.5                    1.187029540514925
-1.8750000000000797       -12.297566561865388      1.1806072207001506
-1.5000000000000764       -12.5                    1.1777289679627918
-1.6250000000000773       -12.297566561865388      1.172842420594405
-7.5                      -7.9999999999999645      0.8246325012844476
-7.297566561865387        -8.124999999999964       0.8294389556333311
-1.2500000000000742       -12.5                    1.1681431877737507
-1.3750000000000753       -12.297566561865388      1.1647228239355474
-1.000000000000071        -12.5                    1.158311052202012
-1.1250000000000724       -12.297566561865386      1.1562785479900437
-7.5                      -7.749999999999961       0.815323995739902
-7.297566561865386        -7.874999999999962       0.8186576742454211
-0.7500000000000693       -12.5                    1.1482622630729997
-0.8750000000000702       -12.297566561865388      1.1475331610788435
-0.5000000000000662       -12.5                    1.1380184528339525
-0.6250000000000677       -12.297566561865388      1.1385040712177688
-7.5                      -7.49999999999996        0.8088768669694248
-7.297566561865387        -7.62499999999996        0.8108342687866749
-0.25000000000006395      -12.5                    1.1275946999645017
-0.3750000000000651       -12.297566561865388      1.129203421434001
-6.128431095930864E-14    -12.5                    1.1170013258643747
-0.12500000000006262      -12.297566561865386      1.1196393736351673
-7.499999999999999        -7.249999999999957       0.8050854418120418
-7.297566561865387        -7.374999999999958       0.8058451869406743
0.2499999999999405        -12.5                    1.106245851485362
0.1249999999999396        -12.297566561865388      1.1098176738535204
0.49999999999994316       -12.5                    1.0953350188070106
0.3749999999999419        -12.297566561865388      1.0997434056467423
-7.500000000000001        -6.999999999999956       0.8036014307648652
-7.297566561865387        -7.124999999999957       0.8033908098848849
0.7499999999999454        -12.5                    1.0842768016584063
0.6249999999999443        -12.297566561865388      1.0894228509693098
-7.5                      -6.749999999999954       0.8039964962321046
-7.297566561865387        -6.8749999999999565      0.8030490555496975
0.9999999999999485        -12.5                    1.073082341438005
0.8749999999999468        -12.297566561865388      1.0788653860864112
1.2499999999999503        -12.5                    1.0617677460856219
1.1249999999999492        -12.297566561865388      1.0680853424885839
-7.5                      -6.49999999999995        0.8058345739552086
-7.297566561865387        -6.624999999999953       0.8043562709313054
1.4999999999999534        -12.5                    1.050355686336799
1.374999999999952         -12.297566561865388      1.0571037586635852
1.7499999999999556        -12.5                    1.0388767136463524
1.6249999999999547        -12.297566561865388      1.04594993831318
-7.5                      -6.249999999999947       0.8087282649217876
-7.297566561865386        -6.3749999999999485      0.8068811691469694
1.9999999999999578        -12.5                    1.027370212048737
1.8749999999999563        -12.297566561865388      1.0346627156442112
2.2499999999999605        -12.5                    1.0158848857758398
2.1249999999999587        -12.297566561865388      1.023291311801039
-7.5                      -5.999999999999943       0.8123676053114671
-7.297566561865386        -6.124999999999945       0.8102684635080147
2.4999999999999627        -12.5                    1.0044786812225475
2.3749999999999614        -12.297566561865388      1.0118956535123684
2.749999999999965         -12.5                    0.9932180525007807
2.624999999999964         -12.297566561865388      1.0005460229977539
-7.5                      -5.7499999999999405      0.8165248621187028
-7.297566561865386        -5.874999999999942       0.8142514447009964
2.999999999999968         -12.5                    0.9821765106113775
2.8749999999999667        -12.297566561865388      0.9893219260000309
3.24999999999997          -12.5                    0.9714324511796372
3.1249999999999694        -12.297566561865388      0.9783101107448201
-7.5                      -5.499999999999939       0.8210452373295256
-7.297566561865386        -5.624999999999939       0.8186450507025848
3.499999999999973         -12.5                    0.9610663333719188
3.3749999999999716        -12.297566561865388      0.9676017488112844
3.749999999999975         -12.5                    0.9511573744075509
3.624999999999974         -12.297566561865388      0.9572888952914301
-7.5                      -5.249999999999936       0.8258320178246364
-7.297566561865387        -5.374999999999936       0.8233307364203611
3.999999999999977         -12.5                    0.9417800138884642
3.874999999999976         -12.297566561865388      0.9474604653868371
4.249999999999979         -12.5                    0.9330004694635874
4.124999999999978         -12.297566561865386      0.9381980731838603
-7.5                      -4.9999999999999325      0.8308311511861234
-7.297566561865386        -5.124999999999933       0.8282398642549239
4.4999999999999805        -12.5                    0.9248737307975503
4.37499999999998          -12.297566561865388      0.9295721473713158
4.749999999999982         -12.5                    0.9174413114932833
4.6249999999999805        -12.297566561865388      0.9216387451788798
-7.5                      -4.749999999999929       0.8360174408244497
-7.297566561865386        -4.87499999999993        0.8333385625343103
4.999999999999984         -12.5                    0.9107299988626382
4.875000237421131         -12.297566737232975      0.9144374144791013
5.249999999999984         -12.5                    0.9047517246423992
5.1250387716186845        -12.29758730529595       0.9079894304998845
-7.5                      -4.499999999999925       0.8413830463523734
-7.297566561865386        -4.624999999999927       0.8386149729806972
5.499999999999988         -12.500000000000002      0.8995045466586733
5.375140754039187         -12.297690472667737      0.9022999873514111
5.749999999999988         -12.5                    0.8949746092267223
5.625303940062854         -12.29795251387332       0.8973600299831138
-7.5                      -4.249999999999923       0.8469283485403262
-7.297566561865386        -4.374999999999924       0.8440689775586367
5.99999999999999          -12.5                    0.8911388564162609
5.87549348520746          -12.298384645793568      0.8931486160414851
-7.5                      -3.999999999999921       0.8526550500427043
-7.297566561865386        -4.124999999999922       0.8497042531745179
6.249999999999991         -12.499999999999998      0.8879682141025769
6.125869195938994         -12.29876506245044       0.8896330024236848
6.499999999999993         -12.5                    0.8854309543646619
6.375780386089769         -12.299738749169684      0.8867854759789627
-7.5                      -3.7499999999999174      0.8585613548099512
-7.297566561865387        -3.8749999999999187      0.8555224822733724
6.749999999999995         -12.499999999999998      0.8834959694588536
6.626182432203677         -12.300205308903218      0.8845582256451249
6.9999999999999964        -12.5                    0.8821357334406249
6.875031779587783         -12.305878096783987      0.8829312848100038
-7.5                      -3.4999999999999147      0.8646390631788328
-7.297566561865386        -3.6249999999999165      0.8615195675278865
7.249999999999998         -12.5                    0.8813286963862389
7.122419833800932         -12.314273476995993      0.8818644475535072
7.5                       -12.5                    0.8810612669654949
7.3305490972724865        -12.337066163356116      0.881371355191597
-7.5                      -3.249999999999911       0.8708723861993338
-7.297566561865386        -3.374999999999913       0.8676836872723058
7.5                       -12.250000000000274      0.8812591075844219
-7.5                      -2.9999999999999076      0.8772382212135931
-7.297566561865386        -3.1249999999999094      0.8739949733953133
7.5                       -12.00000000000027       0.8809410153794026
7.280325652561501         -12.121057339784308      0.881359159552164
-7.5                      -2.749999999999906       0.8837075641736486
-7.297566561865387        -2.8749999999999063      0.8804265160147472
7.5                       -11.75000000000027       0.8801259311694354
7.296816727380562         -11.86049159324837       0.8807084185529827
-7.5                      -2.4999999999999023      0.8902476904234216
-7.297566561865387        -2.6249999999999036      0.8869463324477261
7.5                       -11.500000000000266      0.8788469587220017
7.296306782353468         -11.619847917324217      0.8796656382727942
-7.5                      -2.2499999999998987      0.8968247333106193
-7.297566561865386        -2.3749999999999005      0.8935199097699377
7.5                       -11.250000000000263      0.877154660104455
7.296193798816024         -11.373053116493208      0.8781659113042121
-7.5                      -1.999999999999897       0.9034063320629456
-7.297566561865387        -2.124999999999898       0.9001129525057731
7.5                       -11.00000000000026       0.875122132047098
7.296682635509787         -11.123081789632861      0.8762612327317892
-7.5                      -1.7499999999998934      0.9099640956803198
-7.297566561865386        -1.8749999999998952      0.9066940333423972
7.5                       -10.750000000000256      0.87285113480973
7.297215456100137         -10.87373242639906       0.8740594772968672
-7.5                      -1.4999999999998899      0.9164757195167493
-7.297566561865386        -1.6249999999998916      0.913236936532949
7.5                       -10.500000000000252      0.8704794886986664
7.297469216309853         -10.624433076684706      0.8716725591263216
-7.5                      -1.249999999999888       0.9229266773858525
-7.297566561865386        -1.374999999999889       0.919722579134386
7.5                       -10.250000000000252      0.8681896509116379
7.297544821625707         -10.374831736824646      0.8692517959914577
-7.5                      -0.9999999999998845      0.9293114815778165
-7.297566561865387        -1.124999999999886       0.9261404772719256
7.5                       -10.000000000000249      0.8662179774518969
7.297566561865386         -10.125000000000252      0.8670021611302986
-7.5                      -0.749999999999881       0.9356345503892491
-7.297566561865386        -0.8749999999998832      0.9324897840275795
7.5                       -9.750000000000245       0.8648637243732867
7.297566561865387         -9.875000000000247       0.8651882817439301
-7.5                      -0.4999999999998792      0.9419107478097265
-7.297566561865387        -0.6249999999998802      0.9387799605280344
7.5                       -9.500000000000242       0.8644961021584678
7.297566561865387         -9.625000000000243       0.8641435042101359
-7.5                      -0.24999999999987566     0.9481656665489226
-7.297566561865387        -0.3749999999998772      0.9450311554449463
7.5                       -9.250000000000238       0.8655566753315419
7.297566561865387         -9.37500000000024        0.8642735771659397
-7.5                      1.2789769243681803E-13   0.954435718511944
-7.297566561865387        -0.12499999999987388     0.9512743655919067
7.5                       -9.000000000000234       0.8685531578390101
7.297566561865387         -9.125000000000238       0.8660584487737181
-7.5                      0.25000000000013145      0.9607680807101976
-7.297566561865387        0.1250000000001294       0.9575514368272762
7.5                       -8.750000000000231       0.874039467574892
7.297566561865387         -8.875000000000234       0.8700417506706742
-7.5                      0.5000000000001332       0.9672205229905688
-7.297566561865387        0.37500000000013234      0.963914944261245
-7.5                      0.7500000000001368       0.9738611193599759
-7.297566561865387        0.6250000000001352       0.9704279667561541
7.5                       -8.500000000000231       0.8825765019931299
7.297566561865386         -8.625000000000231       0.8768036584724305
-7.5                      1.0000000000001403       0.9807678188056279
-7.297566561865387        0.8750000000001384       0.9771637448003169
-7.5                      1.250000000000142        0.9880278258578791
-7.297566561865386        1.1250000000001412       0.9842051843794507
7.5                       -8.250000000000227       0.8946698505071727
7.297566561865387         -8.375000000000227       0.8869110866851365
-7.5                      1.5000000000001457       0.9957367175499315
-7.297566561865386        1.3750000000001439       0.9916441438685567
7.5                       -8.000000000000224       0.9106864544369548
7.297566561865386         -8.125000000000226       0.9008420475429197
-7.5                      1.7500000000001492       1.0039972046078451
-7.297566561865386        1.6250000000001474       0.9995804182792846
-7.5                      2.000000000000151        1.012917434576345
-7.297566561865386        1.87500000000015         1.00812031865221
7.5                       -7.75000000000022        0.9307631104356883
7.297566561865386         -7.875000000000222       0.918889324427214
-7.5                      2.2500000000001545       1.0226087382035942
-7.297566561865387        2.1250000000001528       1.0173747386280259
-7.5                      2.500000000000158        1.0331827431792593
-7.297566561865387        2.3750000000001563       1.0274566110424825
7.5                       -7.500000000000217       0.9547330019071009
7.297566561865386         -7.6250000000002185      0.9410631992296139
-7.5                      2.75000000000016         1.0447478253043179
-7.297566561865386        2.625000000000159        1.0384776904997397
-7.5                      3.0000000000001634       1.0574049365287164
-7.297566561865387        2.8750000000001616       1.0505446567053518
7.5                       -7.250000000000214       0.9821032517165436
7.297566561865386         -7.375000000000216       0.9670285766327327
-7.5                      3.250000000000167        1.0712429355999937
-7.297566561865387        3.1250000000001648       1.063754615864687
-7.5                      3.5000000000001705       1.0863336359834983
-7.297566561865387        3.3750000000001683       1.0781901733659118
7.5                       -7.000000000000212       1.012104976384359
7.297566561865386         -7.125000000000213       0.9961145473120431
-7.5                      3.750000000000173        1.102726856875173
-7.297566561865387        3.625000000000172        1.093914341119129
-7.5                      4.000000000000175        1.1204457962950447
-7.297566561865386        3.875000000000174        1.110965603235323
7.5                       -6.75000000000021        1.0438054607792588
7.297566561865387         -6.875000000000212       1.027409237032279
-7.5                      4.2500000000001785       1.139483029572859
-7.297566561865387        4.125000000000177        1.129353474091957
-7.5                      4.500000000000181        1.1597973790381446
-7.297566561865387        4.37500000000018         1.1490548382680823
7.5                       -6.500000000000206       1.0762400409593826
7.297566561865387         -6.625000000000209       1.059906112686125
-7.5                      4.750000000000185        1.18131182908906
-7.297566561865387        4.625000000000184        1.17001128026793
-7.5                      5.000000000000188        1.2039126174052015
-7.297566561865387        4.875000000000187        1.1921275332457129
7.5                       -6.2500000000002025      1.1085173087559261
7.297566561865386         -6.375000000000206       1.0926398394188375
-7.5                      5.250000000000192        1.227449660444674
-7.297566561865387        5.125000000000191        1.2152711508164884
7.5                       -6.000000000000199       1.1398763988868936
7.297566561865386         -6.125000000000202       1.1247695285265353
-7.5                      5.500000000000193        1.2517385903898117
-7.297566561865387        5.375000000000196        1.2392735777491346
-7.5                      5.750000000000195        1.2765648577466322
-7.297566561865387        5.625000000000213        1.2639329757525564
7.5                       -5.750000000000195       1.1697026170893958
7.297566561865387         -5.875000000000198       1.15560779384428
-7.5                      6.000000000000199        1.301690445615163
-7.297566561865383        5.8750000000002744       1.289019393115687
-7.5                      6.2500000000002025       1.326863411190699
-7.297566561865373        6.12500000000052         1.3142829560369513
-7.5                      6.500000000000206        1.351829130625589
-7.297566561865314        6.375000000001497        1.3394652482992182
7.5                       -5.500000000000193       1.197518796656242
7.297566561865387         -5.6250000000001945      1.184616013924261
-7.5                      6.75000000000021         1.376339180073214
-7.297566561865044        6.625000000005321        1.3643121135425051
7.5                       -5.250000000000192       1.2229673088405315
7.297566561865387         -5.375000000000192       1.2113857190601818
-7.5                      7.000000000000212        1.4001497559121032
-7.29756656186382         6.875000000020015        1.3885819198324614
-7.5                      7.250000000000214        1.4230001453422687
-7.297566561858479        7.12500000007515         1.4120378955737907
7.5                       -5.000000000000188       1.2457912065924925
7.297566561865386         -5.12500000000019        1.2356177516699969
-7.5                      7.500000000000217        1.4445698916722332
-7.297566561836021        7.375000000276561        1.4344130490534803
-7.5                      7.75000000000022         1.4644326589617946
-7.297566561745046        7.62500000099089         1.4553521480345424
7.5                       -4.750000000000185       1.2658178980769568
7.297566561865386         -4.8750000000001865      1.2571039933461696
-7.5                      8.000000000000224        1.4820405981955418
-7.297566561390414        7.875000003443098        1.4743640055564498
-7.5                      8.250000000000227        1.496764323241165
-7.297566560062822        8.12500001156533         1.4908279988308413
7.5                       -4.500000000000181       1.2829459709663305
7.297566561865386         -4.625000000000183       1.2757127224759586
-7.5                      8.500000000000231        1.5079824258140293
-7.297566555300502        8.375000037439227        1.5040698516179354
-7.5                      8.750000000000231        1.515186532462442
-7.297566538969229        8.625000116486815        1.5134784027039843
7.5                       -4.2500000000001785      1.297134642543198
7.297566561865386         -4.37500000000018        1.291377114168192
-7.5                      9.000000000000234        1.518062947492629
-7.2975664855457785       8.875000347700917        1.5186146151178315
-7.5                      9.250000000000238        1.5165279526172488
-7.2975663191367355       9.125000995717803        1.5192752196628332
7.5                       -4.000000000000175       1.3083950280622267
7.297566561865386         -4.125000000000177       1.3040859670680602
-7.5                      9.500000000000242        1.5107159330159352
-7.297565826453351        9.375002745899819        1.515500168961032
7.5                       -3.750000000000173       1.3167825142179266
7.297566561865386         -3.875000000000174       1.3138758027431638
-7.5                      9.750000000000245        1.5009346848610765
-7.297564445934001        9.625007366912554        1.5075357011898631
-7.5                      10.000000000000249       1.487606629726258
-7.297560845577814        9.875019628358361        1.495774152243387
-7.5                      10.250000000000252       1.4712112723568067
-7.29755275641692         10.12505376553656        1.4806896085529253
7.5                       -3.5000000000001705      1.3223897434607157
7.297566561865387         -3.625000000000172       1.3208237143681678
-7.5                      10.500000000000252       1.4522379378048766
-7.29754470077156         10.375158554811502       1.4627805083907937
-7.5                      10.750000000000256       1.4311520689574637
-7.297237570905973        10.625280909610913       1.4425411623515354
7.5                       -3.250000000000167       1.3253399404026474
7.297566561865387         -3.3750000000001683      1.3250405964153151
-7.5                      11.00000000000026        1.4083745084726613
-7.2966371414771585       10.875912751842193       1.4203753454307873
7.5                       -3.0000000000001634      1.325780494078603
7.297566561865387         -3.1250000000001648      1.3266646033665672
-7.5                      11.250000000000263       1.3842713776172857
-7.295157557425831        11.127927074417856       1.3965885722790494
-7.5                      11.500000000000266       1.3591516415094331
-7.294713616206049        11.383188153296214       1.371307588349007
7.5                       -2.75000000000016        1.323876833729443
7.297566561865387         -2.8750000000001616      1.3258548406482378
-7.5                      11.75000000000027        1.3332691517606914
-7.294986985216372        11.6282895955173         1.346186288246926
-7.5                      12.00000000000027        1.3068280616957275
-7.298401164683329        11.865385604953795       1.3212959046236605
7.5                       -2.500000000000158       1.319806702621502
7.297566561865387         -2.625000000000159       1.3227853830355876
-7.5                      12.250000000000274       1.2799907776159383
-7.275397475493655        12.122115101058567       1.293913872297195
-7.5                      12.5                     1.2528820466738972
-7.328022341935029        12.339061833572377       1.2704261149727125
7.5                       -2.2500000000001545      1.313754954318772
7.297566561865387         -2.3750000000001563      1.3176397533743354
-7.249999999999998        12.5                     1.2529941935178466
7.5                       -2.000000000000151       1.3059089822545022
7.297566561865387         -2.125000000000153       1.3106059912360142
-6.9999999999999964       12.5                     1.253320525843362
-7.114714234181489        12.323194066803039       1.2724183315357889
7.5                       -1.7500000000001492      1.2964548599478696
7.297566561865386         -1.87500000000015        1.3018724117344942
-6.749999999999995        12.499999999999998       1.253830708546026
-6.877989465427923        12.305337452555392       1.274896610929081
7.5                       -1.5000000000001457      1.285574227397238
7.297566561865386         -1.6250000000001474      1.2916241124019991
-6.499999999999993        12.5                     1.2544748770260874
-6.630349326992596        12.29943190649118        1.2763205069165429
7.5                       -1.250000000000142       1.2734419177856735
7.297566561865386         -1.3750000000001439      1.2800402411686038
-6.249999999999991        12.499999999999998       1.2551845129385744
-6.3798465501165795       12.298398915302291       1.2773687986561073
7.5                       -1.0000000000001403      1.2602242832899184
7.297566561865386         -1.1250000000001412      1.2672919982501225
-5.99999999999999         12.5                     1.2558743519302356
-6.12874173189573         12.29854644695986        1.278337248085407
7.5                       -0.7500000000001368      1.246078152313224
7.297566561865387         -0.8750000000001384      1.2535413131382642