% Model:              U5_backwards_compatible.mph
% Version:            COMSOL 5.6.0.280
% Date:               Aug 23 2022, 10:12
% Dimension:          2
% Nodes:              7634
% Expressions:        1
% Description:        Dependent variable u
% Length unit:        m
% x                       y                        u (1) @ t=500
-7.5                      -12.5                    0.6508507634843536
-7.250000000000133        -12.5                    0.6505694833364175
-7.337467140714745        -12.329651574551194      0.6530339884990308
-7.499999999999999        -12.249999999999996      0.6542652543574807
-7.00000000000013         -12.5                    0.6497233333761584
-7.121656495314211        -12.277385675229983      0.6534448145255193
-7.5                      -11.999999999999996      0.658097018384793
-7.315679208259377        -12.12087219752599       0.6561414529118356
-6.750000000000128        -12.5                    0.6483093440719934
-6.861097408457507        -12.298460102229008      0.652305826581702
-7.5                      -11.749999999999993      0.6621378538145644
-7.305678822689975        -11.878019377584284      0.6600449676150831
-6.500000000000124        -12.5                    0.6463262780192095
-6.618706031168089        -12.297578238319844      0.6512040700934437
-7.500000000000001        -11.499999999999993      0.6661896125061056
-7.300979653050844        -11.62754977113695       0.6641841441113966
-6.250000000000123        -12.5                    0.6437852495097314
-6.3730080229996915       -12.296731258729514      0.6497637073976393
-7.5                      -11.24999999999999       0.6700670740264418
-7.299892167059557        -11.376802265715625      0.668243189585836
-6.000000000000121        -12.5                    0.640723723605472
-6.123449325378588        -12.296850069422781      0.6479943911950227
-7.5                      -10.99999999999999       0.673598050434585
-7.299236716008845        -11.126397090925856      0.6720314133483828
-5.750000000000117        -12.5                    0.6372291877405574
-5.873812060373251        -12.297197084502967      0.6460220885715131
-7.5                      -10.749999999999986      0.6766212687017416
-7.298782900599218        -10.876065443257303      0.6753870616825147
-5.5000000000001155       -12.5                    0.6334744477871117
-5.624432920877559        -12.297449799498764      0.6440198114102981
-7.499999999999999        -10.499999999999986      0.6789823167314802
-7.29829725322039         -10.625679442536171      0.6781557729091084
-5.250000000000114        -12.5                    0.6297645024538171
-5.374778896194034        -12.297539107962342      0.6422478362780965
-7.5                      -10.249999999999984      0.6805279238939462
-7.297926680657121        -10.375393351214836      0.6801840625665525
-5.00000000000011         -12.5                    0.6265837034350051
-5.125000000000111        -12.297566561865388      0.6410966014542216
-7.5                      -9.999999999999982       0.6810986384630957
-7.297710866790436        -10.125187325060487      0.6813194276229813
-4.750000000000108        -12.5                    0.624617005959366
-4.8750000000001075       -12.297566561865388      0.6411174307638116
-7.500000000000001        -9.74999999999998        0.6805198221354262
-7.297604477248478        -9.875068211773142       0.6813998103952431
-4.500000000000105        -12.5                    0.6248119159938056
-4.625000000000106        -12.297566561865386      0.6430471014607728
-4.250000000000103        -12.5                    0.6286644731519242
-4.375000000000106        -12.297566561865388      0.6478251576189908
-7.5                      -9.499999999999979       0.678590745507595
-7.297571022746962        -9.625016759688604       0.6802437238447113
-4.000000000000101        -12.5                    0.6367376121061489
-4.125000000000103        -12.297566561865388      0.656442994785965
-3.7500000000000977       -12.5                    0.6526229320169776
-3.8750000000001          -12.297566561865386      0.6700227180199746
-7.5                      -9.249999999999975       0.6750714864802752
-7.29756685930099         -9.37500131685328        0.6776379395208371
-3.500000000000096        -12.5                    0.6803838356194613
-3.6250000000000973       -12.297566561865388      0.689370509167591
-7.5                      -8.999999999999975       0.6696674504813247
-7.297566561865387        -9.124999999999973       0.6733230150778455
-3.2500000000000937       -12.5                    0.7250858695176522
-3.3750000000000946       -12.297566561865388      0.7169569849968519
-3.0000000000000906       -12.5                    0.7908547792547213
-3.125000000000092        -12.297566561865388      0.7705845000064877
-7.5                      -8.749999999999972       0.6620120370989205
-7.297566561865387        -8.874999999999973       0.6669764229607197
-2.750000000000089        -12.5                    0.8739495201943623
-2.87500000000009         -12.297566561865388      0.8368643437159123
-2.5000000000000857       -12.5                    0.952801844121979
-2.6250000000000875       -12.297566561865388      0.9037157449573182
-7.5                      -8.499999999999968       0.6516505765759132
-7.297566561865387        -8.624999999999972       0.6581938851684882
-2.2500000000000835       -12.5                    1.021997066194182
-2.375000000000085        -12.297566561865388      0.9661951551617091
-2.0000000000000813       -12.5                    1.0789737793228205
-2.125000000000082        -12.297566561865388      1.0210504978306394
-7.5                      -8.249999999999964       0.6380392469231921
-7.297566561865386        -8.374999999999968       0.6464711454198194
-1.7500000000000786       -12.5                    1.1233950626945732
-1.8750000000000797       -12.297566561865388      1.0667233608743245
-1.5000000000000764       -12.5                    1.1564540818177653
-1.6250000000000773       -12.297566561865388      1.1030591887272168
-7.5                      -7.9999999999999645      0.620640931851507
-7.297566561865387        -8.124999999999964       0.6311883478517172
-1.2500000000000742       -12.5                    1.1801865616965006
-1.3750000000000753       -12.297566561865388      1.130876431318775
-1.000000000000071        -12.5                    1.1967093623885783
-1.1250000000000724       -12.297566561865386      1.1514655968111125
-7.5                      -7.749999999999961       0.6039572527902309
-7.297566561865386        -7.874999999999962       0.6119361295739724
-0.7500000000000693       -12.5                    1.20780786080478
-0.8750000000000702       -12.297566561865388      1.1661729666059764
-0.5000000000000662       -12.5                    1.2148222585638904
-0.6250000000000677       -12.297566561865388      1.176162344531509
-7.5                      -7.49999999999996        0.6100402831832393
-7.297566561865387        -7.62499999999996        0.6052763205893424
-0.25000000000006395      -12.5                    1.2186614270200942
-0.3750000000000651       -12.297566561865388      1.1823190459188935
-6.128431095930864E-14    -12.5                    1.219846961917371
-0.12500000000006262      -12.297566561865386      1.1852278780461791
-7.499999999999999        -7.249999999999957       0.6419279909665108
-7.297566561865387        -7.374999999999958       0.6238221029483163
0.2499999999999405        -12.5                    1.2185483278943718
0.1249999999999396        -12.297566561865388      1.1851777967422654
0.49999999999994316       -12.5                    1.2145957387826993
0.3749999999999419        -12.297566561865388      1.1821690873169308
-7.500000000000001        -6.999999999999956       0.7026829005641245
-7.297566561865387        -7.124999999999957       0.6697341959902352
0.7499999999999454        -12.5                    1.2074677313419966
0.6249999999999443        -12.297566561865388      1.1759135862624992
-7.5                      -6.749999999999954       0.7696858678959152
-7.297566561865387        -6.8749999999999565      0.7376573214691223
0.9999999999999485        -12.5                    1.1962565897572621
0.8749999999999468        -12.297566561865388      1.165827981445192
1.2499999999999503        -12.5                    1.179625103784695
1.1249999999999492        -12.297566561865388      1.1510297478931857
-7.5                      -6.49999999999995        0.8337144673880111
-7.297566561865387        -6.624999999999953       0.8030126954606541
1.4999999999999534        -12.5                    1.1557939198057876
1.374999999999952         -12.297566561865388      1.1303599305741459
1.7499999999999556        -12.5                    1.122656887981783
1.6249999999999547        -12.297566561865388      1.1024800915335005
-7.5                      -6.249999999999947       0.8951938927454358
-7.297566561865386        -6.3749999999999485      0.8654815643333508
1.9999999999999578        -12.5                    1.0781954823081155
1.8749999999999563        -12.297566561865388      1.066111507892545
2.2499999999999605        -12.5                    1.021240722715464
2.1249999999999587        -12.297566561865388      1.0204519700658656
-7.5                      -5.999999999999943       0.9547143918890035
-7.297566561865386        -6.124999999999945       0.9257329609685021
2.4999999999999627        -12.5                    0.9521577497892304
2.3749999999999614        -12.297566561865388      0.9656765257155159
2.749999999999965         -12.5                    0.8735368107025384
2.624999999999964         -12.297566561865388      0.9033700745862866
-7.5                      -5.7499999999999405      1.0127609959552186
-7.297566561865386        -5.874999999999942       0.98432599722933
2.999999999999968         -12.5                    0.7908059620728264
2.8749999999999667        -12.297566561865388      0.8368364244549303
3.24999999999997          -12.5                    0.7252169603510898
3.1249999999999694        -12.297566561865388      0.7715513756475744
-7.5                      -5.499999999999939       1.069679797849486
-7.297566561865386        -5.624999999999939       1.0416855894926915
3.499999999999973         -12.5                    0.680411503122567
3.3749999999999716        -12.297566561865388      0.7172244333254217
3.749999999999975         -12.5                    0.6525772014940173
3.624999999999974         -12.297566561865388      0.6894396487841469
-7.5                      -5.249999999999936       1.125660986842587
-7.297566561865387        -5.374999999999936       1.0980860384128317
3.999999999999977         -12.5                    0.6366603730030164
3.874999999999976         -12.297566561865388      0.6700061014216412
4.249999999999979         -12.5                    0.6285653974978562
4.124999999999978         -12.297566561865386      0.6563833269855778
-7.5                      -4.9999999999999325      1.1807252468079898
-7.297566561865386        -5.124999999999933       1.1536390394677734
4.4999999999999805        -12.5                    0.6246914741876443
4.37499999999998          -12.297566561865388      0.6477375125866348
4.749999999999982         -12.5                    0.6244693587523185
4.6249999999999805        -12.297566561865388      0.6429363382329867
-7.5                      -4.749999999999929       1.2347092945315967
-7.297566561865386        -4.87499999999993        1.2082802131934403
4.999999999999984         -12.5                    0.6264082564272084
4.875000237421131         -12.297566737232975      0.6409866355301165
5.249999999999984         -12.5                    0.6295762312163908
5.1250387716186845        -12.29758730529595       0.6409527055756853
-7.5                      -4.499999999999925       1.2872509688350395
-7.297566561865386        -4.624999999999927       1.2617534881475594
5.499999999999988         -12.500000000000002      0.6333020939723663
5.375140754039187         -12.297690472667737      0.6421030417011738
5.749999999999988         -12.5                    0.6370992657762906
5.625303940062854         -12.29795251387332       0.6438877237139166
-7.5                      -4.249999999999923       1.3377771240708791
-7.297566561865386        -4.374999999999924       1.3135955773029837
5.99999999999999          -12.5                    0.6406494498463718
5.87549348520746          -12.298384645793568      0.6459125035244608
-7.5                      -3.999999999999921       1.385499748910199
-7.297566561865386        -4.124999999999922       1.3631250900303498
6.249999999999991         -12.499999999999998      0.6437671636028283
6.125869195938994         -12.29876506245044       0.6479180953365217
6.499999999999993         -12.5                    0.6463573775275326
6.375780386089769         -12.299738749169684      0.649711958245332
-7.5                      -3.7499999999999174      1.4294273506201332
-7.297566561865387        -3.8749999999999187      1.4094428044462382
6.749999999999995         -12.499999999999998      0.6483793008060601
6.626182432203677         -12.300205308903218      0.6512282617311279
6.9999999999999964        -12.5                    0.6498212902509314
6.875031779587783         -12.305878096783987      0.6522982049412124
-7.5                      -3.4999999999999147      1.4683993101267951
-7.297566561865386        -3.6249999999999165      1.4514510454174518
7.249999999999998         -12.5                    0.6506839304922662
7.122419833800932         -12.314273476995993      0.6529663395088643
7.5                       -12.5                    0.650970904521228
7.3305490972724865        -12.337066163356116      0.6530168544431101
-7.5                      -3.249999999999911       1.5011498970392838
-7.297566561865386        -3.374999999999913       1.4879003169375888
7.5                       -12.250000000000274      0.6543534398060492
-7.5                      -2.9999999999999076      1.5264051557247538
-7.297566561865386        -3.1249999999999094      1.5174694157067192
7.5                       -12.00000000000027       0.6581616096833988
7.280325652561501         -12.121057339784308      0.6561836547306942
-7.5                      -2.749999999999906       1.5430095310367793
-7.297566561865387        -2.8749999999999063      1.5388803770077935
7.5                       -11.75000000000027       0.6621868065870707
7.296816727380562         -11.86049159324837       0.6603857963821279
-7.5                      -2.4999999999999023      1.5500704187200813
-7.297566561865387        -2.6249999999999036      1.5510415776956374
7.5                       -11.500000000000266      0.6662286242358366
7.296306782353468         -11.619847917324217      0.6643550178016145
-7.5                      -2.2499999999998987      1.5470996749247783
-7.297566561865386        -2.3749999999999005      1.553202218888525
7.5                       -11.250000000000263      0.6701006554223735
7.296193798816024         -11.373053116493208      0.6683408457635748
-7.5                      -1.999999999999897       1.5341246501255414
-7.297566561865387        -2.124999999999898       1.5450919412495887
7.5                       -11.00000000000026       0.6736297966321326
7.296682635509787         -11.123081789632861      0.6721144620418907
-7.5                      -1.7499999999998934      1.5117410655259171
-7.297566561865386        -1.8749999999998952      1.5270144353754118
7.5                       -10.750000000000256      0.6766540741032298
7.297215456100137         -10.87373242639906       0.6754502935506698
-7.5                      -1.4999999999998899      1.481088353839797
-7.297566561865386        -1.6249999999998916      1.4998673776135254
7.5                       -10.500000000000252      0.6790186006568004
7.297469216309853         -10.624433076684706      0.6782035512527621
-7.5                      -1.249999999999888       1.4437443757895208
-7.297566561865386        -1.374999999999889       1.4650743998453022
7.5                       -10.250000000000252      0.6805698295007181
7.297544821625707         -10.374831736824646      0.6802270170852892
-7.5                      -0.9999999999998845      1.401556471261685
-7.297566561865387        -1.124999999999886       1.4244357100338532
7.5                       -10.000000000000249      0.6811481989190501
7.297566561865386         -10.125000000000252      0.6813652178178823
-7.5                      -0.749999999999881       1.3564426949193376
-7.297566561865386        -0.8749999999998832      1.3799259465108074
7.5                       -9.750000000000245       0.6805791070599682
7.297566561865387         -9.875000000000247       0.6814532459487194
-7.5                      -0.4999999999998792      1.3102040093896263
-7.297566561865387        -0.6249999999998802      1.3334823908837234
7.5                       -9.500000000000242       0.6786620013098835
7.297566561865387         -9.625000000000243       0.6803077583555739
-7.5                      -0.24999999999987566     1.2643820169726483
-7.297566561865387        -0.3749999999998772      1.2868272180485094
7.5                       -9.250000000000238       0.675157280612178
7.297566561865387         -9.37500000000024        0.6777151253486501
-7.5                      1.2789769243681803E-13   1.2201802746141228
-7.297566561865387        -0.12499999999987388     1.2413534070134025
7.5                       -9.000000000000234       0.6697708267744412
7.297566561865387         -9.125000000000238       0.6734160178289742
-7.5                      0.25000000000013145      1.1784479366210854
-7.297566561865387        0.1250000000001294       1.1980818974584493
7.5                       -8.750000000000231       0.662136685569556
7.297566561865387         -8.875000000000234       0.6670885163301475
-7.5                      0.5000000000001332       1.1397103479042159
-7.297566561865387        0.37500000000013234      1.1576778521065814
-7.5                      0.7500000000001368       1.104226029451482
-7.297566561865387        0.6250000000001352       1.1205038457172842
7.5                       -8.500000000000231       0.6518010103161415
7.297566561865386         -8.625000000000231       0.6583290952535991
-7.5                      1.0000000000001403       1.0720518602894573
-7.297566561865387        0.8750000000001384       1.0866880029688601
-7.5                      1.250000000000142        1.0431042019272145
-7.297566561865386        1.1250000000001412       1.0561912033248075
7.5                       -8.250000000000227       0.6382209446970544
7.297566561865387         -8.375000000000227       0.6466344239104118
-7.5                      1.5000000000001457       1.017209755435016
-7.297566561865386        1.3750000000001439       1.028864663020985
7.5                       -8.000000000000224       0.6208602451628654
7.297566561865386         -8.125000000000226       0.6313857466611585
-7.5                      1.7500000000001492       0.9941443782072188
-7.297566561865386        1.6250000000001474       1.0044948037149795
-7.5                      2.000000000000151        0.9736606625593528
-7.297566561865386        1.87500000000015         0.9828357039443613
7.5                       -7.75000000000022        0.6042123701993775
7.297566561865386         -7.875000000000222       0.6121743138988328
-7.5                      2.2500000000001545       0.955506217067119
-7.297566561865387        2.1250000000001528       0.9636310246735205
-7.5                      2.500000000000158        0.93943484343463
-7.297566561865387        2.3750000000001563       0.9466277607017811
7.5                       -7.500000000000217       0.6102901759506328
7.297566561865386         -7.6250000000002185      0.605532412644387
-7.5                      2.75000000000016         0.925212602994018
-7.297566561865386        2.625000000000159        0.9315840358162938
-7.5                      3.0000000000001634       0.9126203969061182
-7.297566561865387        2.8750000000001616       0.9182727824276679
7.5                       -7.250000000000214       0.6421209999342615
7.297566561865386         -7.375000000000216       0.6240489418830643
-7.5                      3.250000000000167        0.9014542953058161
-7.297566561865387        3.1250000000001648       0.9064827212782799
-7.5                      3.5000000000001705       0.8915245125953476
-7.297566561865387        3.3750000000001683       0.896017675842792
7.5                       -7.000000000000212       0.7027488508048872
7.297566561865386         -7.125000000000213       0.6698714852324342
-7.5                      3.750000000000173        0.8826536609751834
-7.297566561865387        3.625000000000172        0.8866949517969064
-7.5                      4.000000000000175        0.8746747205125006
-7.297566561865386        3.875000000000174        0.8783432865082634
7.5                       -6.75000000000021        0.7696062988208722
7.297566561865387         -6.875000000000212       0.7376472135912552
-7.5                      4.2500000000001785       0.8674290301917496
-7.297566561865387        4.125000000000177        0.8708007159192718
-7.5                      4.500000000000181        0.8607645166068435
-7.297566561865387        4.37500000000018         0.8639126016658302
7.5                       -6.500000000000206       0.833496075388407
7.297566561865387         -6.625000000000209       0.8028602205395637
-7.5                      4.750000000000185        0.8545343221565576
-7.297566561865387        4.625000000000184        0.8575299955302637
-7.5                      5.000000000000188        0.848595961469569
-7.297566561865387        4.875000000000187        0.8515084790686958
7.5                       -6.2500000000002025      0.8948434714943749
7.297566561865386         -6.375000000000206       0.8651937685319996
-7.5                      5.250000000000192        0.8428111135658986
-7.297566561865387        5.125000000000191        0.845707593197128
7.5                       -6.000000000000199       0.9542385371083076
7.297566561865386         -6.125000000000202       0.9253163716098188
-7.5                      5.500000000000193        0.837046139109027
-7.297566561865387        5.375000000000196        0.8399909567297774
-7.5                      5.750000000000195        0.831173388343546
-7.297566561865387        5.625000000000213        0.8342271558696072
7.5                       -5.750000000000195       1.012166626854784
7.297566561865387         -5.875000000000198       0.9837871005739597
-7.5                      6.000000000000199        0.8250733271005458
-7.297566561865383        5.8750000000002744       0.828291459711027
-7.5                      6.2500000000002025       0.818637447139159
-7.297566561865373        6.12500000000052         0.8220683707414495
-7.5                      6.500000000000206        0.8117718371766985
-7.297566561865314        6.375000000001497        0.815454945534274
7.5                       -5.500000000000193       1.0689748787982385
7.297566561865387         -5.6250000000001945      1.0410314815966462
-7.5                      6.75000000000021         0.804401173130282
-7.297566561865044        6.625000000005321        0.8083647143705573
7.5                       -5.250000000000192       1.1248554125642556
7.297566561865387         -5.375000000000192       1.0973252340357664
-7.5                      7.000000000000212        0.7964727540371972
-7.29756656186382         6.875000000020015        0.8007318936997683
-7.5                      7.250000000000214        0.7879600958021115
-7.297566561858479        7.12500000007515         0.7925154430541417
7.5                       -5.000000000000188       1.1798318886330572
7.297566561865386         -5.12500000000019        1.1527824357939347
-7.5                      7.500000000000217        0.7788655483923598
-7.297566561836021        7.375000000276561        0.7837024114364181
-7.5                      7.75000000000022         0.7692214788409159
-7.297566561745046        7.62500000099089         0.7743100094643262
7.5                       -4.750000000000185       1.2337452108088338
7.297566561865386         -4.8750000000001865      1.207342218433994
-7.5                      8.000000000000224        0.7590897946160663
-7.297566561390414        7.875000003443098        0.7643859930821232
-7.5                      8.250000000000227        0.748559941621819
-7.297566560062822        8.12500001156533         0.7540072711584545
7.5                       -4.500000000000181       1.286238768988534
7.297566561865386         -4.625000000000183       1.2607533189070734
-7.5                      8.500000000000231        0.737745888346223
-7.297566555300502        8.375000037439227        0.7432770866263408
-7.5                      8.750000000000231        0.7267828319464956
-7.297566538969229        8.625000116486815        0.7323215062613956
7.5                       -4.2500000000001785      1.3367464451311888
7.297566561865386         -4.37500000000018        1.3125587065603577
-7.5                      9.000000000000234        0.7158242756026404
-7.2975664855457785       8.875000347700917        0.7212860797845368
-7.5                      9.250000000000238        0.7050396801856311
-7.2975663191367355       9.125000995717803        0.7103332486836177
7.5                       -4.000000000000175       1.3844887550261047
7.297566561865386         -4.125000000000177       1.3620847884954512
-7.5                      9.500000000000242        0.6946122099763471
-7.297565826453351        9.375002745899819        0.6996404210707549
7.5                       -3.750000000000173       1.4284841003222508
7.297566561865386         -3.875000000000174       1.4084416603344339
-7.5                      9.750000000000245        0.6847354534057852
-7.297564445934001        9.625007366912554        0.6893978078777745
-7.5                      10.000000000000249       0.675607748901981
-7.297560845577814        9.875019628358361        0.6798045049826192
-7.5                      10.250000000000252       0.6674231329267083
-7.29755275641692         10.12505376553656        0.6710612576646547
7.5                       -3.5000000000001705      1.4675827572510147
7.297566561865387         -3.625000000000172       1.4505422721555945
-7.5                      10.500000000000252       0.6603589495670378
-7.29754470077156         10.375158554811502       0.6633589857463663
-7.5                      10.750000000000256       0.6545614945399719
-7.297237570905973        10.625280909610913       0.6568673598672125
7.5                       -3.250000000000167       1.500530210772503
7.297566561865387         -3.3750000000001683      1.4871485714483352
-7.5                      11.00000000000026        0.6501321662436133
-7.2966371414771585       10.875912751842193       0.6517075124479855
7.5                       -3.0000000000001634      1.5260629846268217
7.297566561865387         -3.1250000000001648      1.5169507673144975
-7.5                      11.250000000000263       0.6471169255448408
-7.295157557425831        11.127927074417856       0.6479527044958342
-7.5                      11.500000000000266       0.645501274347104
-7.294713616206049        11.383188153296214       0.6456406376575446
7.5                       -2.75000000000016        1.5430338266842092
7.297566561865387         -2.8750000000001616      1.5386810158349447
-7.5                      11.75000000000027        0.6452115813892972
-7.294986985216372        11.6282895955173         0.6447850722090208
-7.5                      12.00000000000027        0.6461222933342151
-7.298401164683329        11.865385604953795       0.6451434323682944
7.5                       -2.500000000000158       1.5505545140696404
7.297566561865387         -2.625000000000159       1.5512548694503494
-7.5                      12.250000000000274       0.6480661786813606
-7.275397475493655        12.122115101058567       0.6465988507235564
-7.5                      12.5                     0.6508507634843399
-7.328022341935029        12.339061833572377       0.6488068140871622
7.5                       -2.2500000000001545      1.54813551252295
7.297566561865387         -2.3750000000001563      1.5539238413645433
-7.249999999999998        12.5                     0.6505694833364172
7.5                       -2.000000000000151       1.5357953854365443
7.297566561865387         -2.125000000000153       1.5464131060849005
-6.9999999999999964       12.5                     0.6497233333761586
-7.114714234181489        12.323194066803039       0.647952674706208
7.5                       -1.7500000000001492      1.514112699909328
7.297566561865386         -1.87500000000015        1.5290136034817807
-6.749999999999995        12.499999999999998       0.6483093440719935
-6.877989465427923        12.305337452555392       0.6463405156870431
7.5                       -1.5000000000001457      1.4842014973793143
7.297566561865386         -1.6250000000001474      1.5026013636820652
-6.499999999999993        12.5                     0.6463262780192095
-6.630349326992596        12.29943190649118        0.6440409170746739
7.5                       -1.250000000000142       1.4476075710498495
7.297566561865386         -1.3750000000001439      1.4685702182576346
-6.249999999999991        12.499999999999998       0.6437852495097314
-6.3798465501165795       12.298398915302291       0.6409761177314309